V -t * -v 1.0a5 -a 0
A -t * -n 1 -p 0 -o 0x7fffffff -c 30 -a 1
A -t * -h 1 -m 1073741823 -s 0
c -t * -i 1 -n Blue
c -t * -i 2 -n Red
n -t * -a 4 -s 4 -S UP -v circle -c black -i black
n -t * -a 0 -s 0 -S UP -v circle -c black -i black
n -t * -a 1 -s 1 -S UP -v circle -c black -i black
n -t * -a 2 -s 2 -S UP -v circle -c black -i black
n -t * -a 3 -s 3 -S UP -v circle -c black -i black
l -t * -s 0 -d 3 -S UP -r 2000000 -D 0.01 -c black -o right-down
l -t * -s 1 -d 3 -S UP -r 2000000 -D 0.01 -c black -o right-up
l -t * -s 3 -d 2 -S UP -r 1000000 -D 0.01 -c black -o right-up
l -t * -s 3 -d 4 -S UP -r 1000000 -D 0.01 -c black -o right-down
q -t * -s 4 -d 3 -a 0.5
q -t * -s 3 -d 4 -a 0.5
q -t * -s 2 -d 3 -a 0.5
q -t * -s 3 -d 2 -a 0.5
+ -t 0.1 -s 0 -d 3 -p tcp -e 40 -c 1 -i 0 -a 1 -x {0.0 2.0 0 ------- null}
- -t 0.1 -s 0 -d 3 -p tcp -e 40 -c 1 -i 0 -a 1 -x {0.0 2.0 0 ------- null}
h -t 0.1 -s 0 -d 3 -p tcp -e 40 -c 1 -i 0 -a 1 -x {0.0 2.0 -1 ------- null}
r -t 0.11016 -s 0 -d 3 -p tcp -e 40 -c 1 -i 0 -a 1 -x {0.0 2.0 0 ------- null}
+ -t 0.11016 -s 3 -d 2 -p tcp -e 40 -c 1 -i 0 -a 1 -x {0.0 2.0 0 ------- null}
- -t 0.11016 -s 3 -d 2 -p tcp -e 40 -c 1 -i 0 -a 1 -x {0.0 2.0 0 ------- null}
h -t 0.11016 -s 3 -d 2 -p tcp -e 40 -c 1 -i 0 -a 1 -x {0.0 2.0 -1 ------- null}
r -t 0.12048 -s 3 -d 2 -p tcp -e 40 -c 1 -i 0 -a 1 -x {0.0 2.0 0 ------- null}
+ -t 0.12048 -s 2 -d 3 -p ack -e 40 -c 1 -i 1 -a 1 -x {2.0 0.0 0 ------- null}
- -t 0.12048 -s 2 -d 3 -p ack -e 40 -c 1 -i 1 -a 1 -x {2.0 0.0 0 ------- null}
h -t 0.12048 -s 2 -d 3 -p ack -e 40 -c 1 -i 1 -a 1 -x {2.0 0.0 -1 ------- null}
r -t 0.1308 -s 2 -d 3 -p ack -e 40 -c 1 -i 1 -a 1 -x {2.0 0.0 0 ------- null}
+ -t 0.1308 -s 3 -d 0 -p ack -e 40 -c 1 -i 1 -a 1 -x {2.0 0.0 0 ------- null}
- -t 0.1308 -s 3 -d 0 -p ack -e 40 -c 1 -i 1 -a 1 -x {2.0 0.0 0 ------- null}
h -t 0.1308 -s 3 -d 0 -p ack -e 40 -c 1 -i 1 -a 1 -x {2.0 0.0 -1 ------- null}
r -t 0.14096 -s 3 -d 0 -p ack -e 40 -c 1 -i 1 -a 1 -x {2.0 0.0 0 ------- null}
+ -t 0.14096 -s 0 -d 3 -p tcp -e 1040 -c 1 -i 2 -a 1 -x {0.0 2.0 1 ------- null}
- -t 0.14096 -s 0 -d 3 -p tcp -e 1040 -c 1 -i 2 -a 1 -x {0.0 2.0 1 ------- null}
h -t 0.14096 -s 0 -d 3 -p tcp -e 1040 -c 1 -i 2 -a 1 -x {0.0 2.0 -1 ------- null}
+ -t 0.14096 -s 0 -d 3 -p tcp -e 1040 -c 1 -i 3 -a 1 -x {0.0 2.0 2 ------- null}
- -t 0.14512 -s 0 -d 3 -p tcp -e 1040 -c 1 -i 3 -a 1 -x {0.0 2.0 2 ------- null}
h -t 0.14512 -s 0 -d 3 -p tcp -e 1040 -c 1 -i 3 -a 1 -x {0.0 2.0 -1 ------- null}
r -t 0.15512 -s 0 -d 3 -p tcp -e 1040 -c 1 -i 2 -a 1 -x {0.0 2.0 1 ------- null}
+ -t 0.15512 -s 3 -d 2 -p tcp -e 1040 -c 1 -i 2 -a 1 -x {0.0 2.0 1 ------- null}
- -t 0.15512 -s 3 -d 2 -p tcp -e 1040 -c 1 -i 2 -a 1 -x {0.0 2.0 1 ------- null}
h -t 0.15512 -s 3 -d 2 -p tcp -e 1040 -c 1 -i 2 -a 1 -x {0.0 2.0 -1 ------- null}
r -t 0.15928 -s 0 -d 3 -p tcp -e 1040 -c 1 -i 3 -a 1 -x {0.0 2.0 2 ------- null}
+ -t 0.15928 -s 3 -d 2 -p tcp -e 1040 -c 1 -i 3 -a 1 -x {0.0 2.0 2 ------- null}
- -t 0.16344 -s 3 -d 2 -p tcp -e 1040 -c 1 -i 3 -a 1 -x {0.0 2.0 2 ------- null}
h -t 0.16344 -s 3 -d 2 -p tcp -e 1040 -c 1 -i 3 -a 1 -x {0.0 2.0 -1 ------- null}
r -t 0.17344 -s 3 -d 2 -p tcp -e 1040 -c 1 -i 2 -a 1 -x {0.0 2.0 1 ------- null}
+ -t 0.17344 -s 2 -d 3 -p ack -e 40 -c 1 -i 4 -a 1 -x {2.0 0.0 1 ------- null}
- -t 0.17344 -s 2 -d 3 -p ack -e 40 -c 1 -i 4 -a 1 -x {2.0 0.0 1 ------- null}
h -t 0.17344 -s 2 -d 3 -p ack -e 40 -c 1 -i 4 -a 1 -x {2.0 0.0 -1 ------- null}
r -t 0.18176 -s 3 -d 2 -p tcp -e 1040 -c 1 -i 3 -a 1 -x {0.0 2.0 2 ------- null}
+ -t 0.18176 -s 2 -d 3 -p ack -e 40 -c 1 -i 5 -a 1 -x {2.0 0.0 2 ------- null}
- -t 0.18176 -s 2 -d 3 -p ack -e 40 -c 1 -i 5 -a 1 -x {2.0 0.0 2 ------- null}
h -t 0.18176 -s 2 -d 3 -p ack -e 40 -c 1 -i 5 -a 1 -x {2.0 0.0 -1 ------- null}
r -t 0.18376 -s 2 -d 3 -p ack -e 40 -c 1 -i 4 -a 1 -x {2.0 0.0 1 ------- null}
+ -t 0.18376 -s 3 -d 0 -p ack -e 40 -c 1 -i 4 -a 1 -x {2.0 0.0 1 ------- null}
- -t 0.18376 -s 3 -d 0 -p ack -e 40 -c 1 -i 4 -a 1 -x {2.0 0.0 1 ------- null}
h -t 0.18376 -s 3 -d 0 -p ack -e 40 -c 1 -i 4 -a 1 -x {2.0 0.0 -1 ------- null}
r -t 0.19208 -s 2 -d 3 -p ack -e 40 -c 1 -i 5 -a 1 -x {2.0 0.0 2 ------- null}
+ -t 0.19208 -s 3 -d 0 -p ack -e 40 -c 1 -i 5 -a 1 -x {2.0 0.0 2 ------- null}
- -t 0.19208 -s 3 -d 0 -p ack -e 40 -c 1 -i 5 -a 1 -x {2.0 0.0 2 ------- null}
h -t 0.19208 -s 3 -d 0 -p ack -e 40 -c 1 -i 5 -a 1 -x {2.0 0.0 -1 ------- null}
r -t 0.19392 -s 3 -d 0 -p ack -e 40 -c 1 -i 4 -a 1 -x {2.0 0.0 1 ------- null}
+ -t 0.19392 -s 0 -d 3 -p tcp -e 1040 -c 1 -i 6 -a 1 -x {0.0 2.0 3 ------- null}
- -t 0.19392 -s 0 -d 3 -p tcp -e 1040 -c 1 -i 6 -a 1 -x {0.0 2.0 3 ------- null}
h -t 0.19392 -s 0 -d 3 -p tcp -e 1040 -c 1 -i 6 -a 1 -x {0.0 2.0 -1 ------- null}
+ -t 0.19392 -s 0 -d 3 -p tcp -e 1040 -c 1 -i 7 -a 1 -x {0.0 2.0 4 ------- null}
- -t 0.19808 -s 0 -d 3 -p tcp -e 1040 -c 1 -i 7 -a 1 -x {0.0 2.0 4 ------- null}
h -t 0.19808 -s 0 -d 3 -p tcp -e 1040 -c 1 -i 7 -a 1 -x {0.0 2.0 -1 ------- null}
+ -t 0.2 -s 1 -d 3 -p tcp -e 40 -c 2 -i 8 -a 2 -x {1.0 4.0 0 ------- null}
- -t 0.2 -s 1 -d 3 -p tcp -e 40 -c 2 -i 8 -a 2 -x {1.0 4.0 0 ------- null}
h -t 0.2 -s 1 -d 3 -p tcp -e 40 -c 2 -i 8 -a 2 -x {1.0 4.0 -1 ------- null}
r -t 0.20224 -s 3 -d 0 -p ack -e 40 -c 1 -i 5 -a 1 -x {2.0 0.0 2 ------- null}
+ -t 0.20224 -s 0 -d 3 -p tcp -e 1040 -c 1 -i 9 -a 1 -x {0.0 2.0 5 ------- null}
+ -t 0.20224 -s 0 -d 3 -p tcp -e 1040 -c 1 -i 10 -a 1 -x {0.0 2.0 6 ------- null}
- -t 0.20224 -s 0 -d 3 -p tcp -e 1040 -c 1 -i 9 -a 1 -x {0.0 2.0 5 ------- null}
h -t 0.20224 -s 0 -d 3 -p tcp -e 1040 -c 1 -i 9 -a 1 -x {0.0 2.0 -1 ------- null}
- -t 0.2064 -s 0 -d 3 -p tcp -e 1040 -c 1 -i 10 -a 1 -x {0.0 2.0 6 ------- null}
h -t 0.2064 -s 0 -d 3 -p tcp -e 1040 -c 1 -i 10 -a 1 -x {0.0 2.0 -1 ------- null}
r -t 0.20808 -s 0 -d 3 -p tcp -e 1040 -c 1 -i 6 -a 1 -x {0.0 2.0 3 ------- null}
+ -t 0.20808 -s 3 -d 2 -p tcp -e 1040 -c 1 -i 6 -a 1 -x {0.0 2.0 3 ------- null}
- -t 0.20808 -s 3 -d 2 -p tcp -e 1040 -c 1 -i 6 -a 1 -x {0.0 2.0 3 ------- null}
h -t 0.20808 -s 3 -d 2 -p tcp -e 1040 -c 1 -i 6 -a 1 -x {0.0 2.0 -1 ------- null}
r -t 0.21016 -s 1 -d 3 -p tcp -e 40 -c 2 -i 8 -a 2 -x {1.0 4.0 0 ------- null}
+ -t 0.21016 -s 3 -d 4 -p tcp -e 40 -c 2 -i 8 -a 2 -x {1.0 4.0 0 ------- null}
- -t 0.21016 -s 3 -d 4 -p tcp -e 40 -c 2 -i 8 -a 2 -x {1.0 4.0 0 ------- null}
h -t 0.21016 -s 3 -d 4 -p tcp -e 40 -c 2 -i 8 -a 2 -x {1.0 4.0 -1 ------- null}
r -t 0.21224 -s 0 -d 3 -p tcp -e 1040 -c 1 -i 7 -a 1 -x {0.0 2.0 4 ------- null}
+ -t 0.21224 -s 3 -d 2 -p tcp -e 1040 -c 1 -i 7 -a 1 -x {0.0 2.0 4 ------- null}
r -t 0.2164 -s 0 -d 3 -p tcp -e 1040 -c 1 -i 9 -a 1 -x {0.0 2.0 5 ------- null}
+ -t 0.2164 -s 3 -d 2 -p tcp -e 1040 -c 1 -i 9 -a 1 -x {0.0 2.0 5 ------- null}
- -t 0.2164 -s 3 -d 2 -p tcp -e 1040 -c 1 -i 7 -a 1 -x {0.0 2.0 4 ------- null}
h -t 0.2164 -s 3 -d 2 -p tcp -e 1040 -c 1 -i 7 -a 1 -x {0.0 2.0 -1 ------- null}
r -t 0.22048 -s 3 -d 4 -p tcp -e 40 -c 2 -i 8 -a 2 -x {1.0 4.0 0 ------- null}
+ -t 0.22048 -s 4 -d 3 -p ack -e 40 -c 2 -i 11 -a 2 -x {4.0 1.0 0 ------- null}
- -t 0.22048 -s 4 -d 3 -p ack -e 40 -c 2 -i 11 -a 2 -x {4.0 1.0 0 ------- null}
h -t 0.22048 -s 4 -d 3 -p ack -e 40 -c 2 -i 11 -a 2 -x {4.0 1.0 -1 ------- null}
r -t 0.22056 -s 0 -d 3 -p tcp -e 1040 -c 1 -i 10 -a 1 -x {0.0 2.0 6 ------- null}
+ -t 0.22056 -s 3 -d 2 -p tcp -e 1040 -c 1 -i 10 -a 1 -x {0.0 2.0 6 ------- null}
- -t 0.22472 -s 3 -d 2 -p tcp -e 1040 -c 1 -i 9 -a 1 -x {0.0 2.0 5 ------- null}
h -t 0.22472 -s 3 -d 2 -p tcp -e 1040 -c 1 -i 9 -a 1 -x {0.0 2.0 -1 ------- null}
r -t 0.2264 -s 3 -d 2 -p tcp -e 1040 -c 1 -i 6 -a 1 -x {0.0 2.0 3 ------- null}
+ -t 0.2264 -s 2 -d 3 -p ack -e 40 -c 1 -i 12 -a 1 -x {2.0 0.0 3 ------- null}
- -t 0.2264 -s 2 -d 3 -p ack -e 40 -c 1 -i 12 -a 1 -x {2.0 0.0 3 ------- null}
h -t 0.2264 -s 2 -d 3 -p ack -e 40 -c 1 -i 12 -a 1 -x {2.0 0.0 -1 ------- null}
r -t 0.2308 -s 4 -d 3 -p ack -e 40 -c 2 -i 11 -a 2 -x {4.0 1.0 0 ------- null}
+ -t 0.2308 -s 3 -d 1 -p ack -e 40 -c 2 -i 11 -a 2 -x {4.0 1.0 0 ------- null}
- -t 0.2308 -s 3 -d 1 -p ack -e 40 -c 2 -i 11 -a 2 -x {4.0 1.0 0 ------- null}
h -t 0.2308 -s 3 -d 1 -p ack -e 40 -c 2 -i 11 -a 2 -x {4.0 1.0 -1 ------- null}
- -t 0.23304 -s 3 -d 2 -p tcp -e 1040 -c 1 -i 10 -a 1 -x {0.0 2.0 6 ------- null}
h -t 0.23304 -s 3 -d 2 -p tcp -e 1040 -c 1 -i 10 -a 1 -x {0.0 2.0 -1 ------- null}
r -t 0.23472 -s 3 -d 2 -p tcp -e 1040 -c 1 -i 7 -a 1 -x {0.0 2.0 4 ------- null}
+ -t 0.23472 -s 2 -d 3 -p ack -e 40 -c 1 -i 13 -a 1 -x {2.0 0.0 4 ------- null}
- -t 0.23472 -s 2 -d 3 -p ack -e 40 -c 1 -i 13 -a 1 -x {2.0 0.0 4 ------- null}
h -t 0.23472 -s 2 -d 3 -p ack -e 40 -c 1 -i 13 -a 1 -x {2.0 0.0 -1 ------- null}
r -t 0.23672 -s 2 -d 3 -p ack -e 40 -c 1 -i 12 -a 1 -x {2.0 0.0 3 ------- null}
+ -t 0.23672 -s 3 -d 0 -p ack -e 40 -c 1 -i 12 -a 1 -x {2.0 0.0 3 ------- null}
- -t 0.23672 -s 3 -d 0 -p ack -e 40 -c 1 -i 12 -a 1 -x {2.0 0.0 3 ------- null}
h -t 0.23672 -s 3 -d 0 -p ack -e 40 -c 1 -i 12 -a 1 -x {2.0 0.0 -1 ------- null}
r -t 0.24096 -s 3 -d 1 -p ack -e 40 -c 2 -i 11 -a 2 -x {4.0 1.0 0 ------- null}
+ -t 0.24096 -s 1 -d 3 -p tcp -e 1040 -c 2 -i 14 -a 2 -x {1.0 4.0 1 ------- null}
- -t 0.24096 -s 1 -d 3 -p tcp -e 1040 -c 2 -i 14 -a 2 -x {1.0 4.0 1 ------- null}
h -t 0.24096 -s 1 -d 3 -p tcp -e 1040 -c 2 -i 14 -a 2 -x {1.0 4.0 -1 ------- null}
+ -t 0.24096 -s 1 -d 3 -p tcp -e 1040 -c 2 -i 15 -a 2 -x {1.0 4.0 2 ------- null}
r -t 0.24304 -s 3 -d 2 -p tcp -e 1040 -c 1 -i 9 -a 1 -x {0.0 2.0 5 ------- null}
+ -t 0.24304 -s 2 -d 3 -p ack -e 40 -c 1 -i 16 -a 1 -x {2.0 0.0 5 ------- null}
- -t 0.24304 -s 2 -d 3 -p ack -e 40 -c 1 -i 16 -a 1 -x {2.0 0.0 5 ------- null}
h -t 0.24304 -s 2 -d 3 -p ack -e 40 -c 1 -i 16 -a 1 -x {2.0 0.0 -1 ------- null}
r -t 0.24504 -s 2 -d 3 -p ack -e 40 -c 1 -i 13 -a 1 -x {2.0 0.0 4 ------- null}
+ -t 0.24504 -s 3 -d 0 -p ack -e 40 -c 1 -i 13 -a 1 -x {2.0 0.0 4 ------- null}
- -t 0.24504 -s 3 -d 0 -p ack -e 40 -c 1 -i 13 -a 1 -x {2.0 0.0 4 ------- null}
h -t 0.24504 -s 3 -d 0 -p ack -e 40 -c 1 -i 13 -a 1 -x {2.0 0.0 -1 ------- null}
- -t 0.24512 -s 1 -d 3 -p tcp -e 1040 -c 2 -i 15 -a 2 -x {1.0 4.0 2 ------- null}
h -t 0.24512 -s 1 -d 3 -p tcp -e 1040 -c 2 -i 15 -a 2 -x {1.0 4.0 -1 ------- null}
r -t 0.24688 -s 3 -d 0 -p ack -e 40 -c 1 -i 12 -a 1 -x {2.0 0.0 3 ------- null}
+ -t 0.24688 -s 0 -d 3 -p tcp -e 1040 -c 1 -i 17 -a 1 -x {0.0 2.0 7 ------- null}
- -t 0.24688 -s 0 -d 3 -p tcp -e 1040 -c 1 -i 17 -a 1 -x {0.0 2.0 7 ------- null}
h -t 0.24688 -s 0 -d 3 -p tcp -e 1040 -c 1 -i 17 -a 1 -x {0.0 2.0 -1 ------- null}
+ -t 0.24688 -s 0 -d 3 -p tcp -e 1040 -c 1 -i 18 -a 1 -x {0.0 2.0 8 ------- null}
- -t 0.25104 -s 0 -d 3 -p tcp -e 1040 -c 1 -i 18 -a 1 -x {0.0 2.0 8 ------- null}
h -t 0.25104 -s 0 -d 3 -p tcp -e 1040 -c 1 -i 18 -a 1 -x {0.0 2.0 -1 ------- null}
r -t 0.25136 -s 3 -d 2 -p tcp -e 1040 -c 1 -i 10 -a 1 -x {0.0 2.0 6 ------- null}
+ -t 0.25136 -s 2 -d 3 -p ack -e 40 -c 1 -i 19 -a 1 -x {2.0 0.0 6 ------- null}
- -t 0.25136 -s 2 -d 3 -p ack -e 40 -c 1 -i 19 -a 1 -x {2.0 0.0 6 ------- null}
h -t 0.25136 -s 2 -d 3 -p ack -e 40 -c 1 -i 19 -a 1 -x {2.0 0.0 -1 ------- null}
r -t 0.25336 -s 2 -d 3 -p ack -e 40 -c 1 -i 16 -a 1 -x {2.0 0.0 5 ------- null}
+ -t 0.25336 -s 3 -d 0 -p ack -e 40 -c 1 -i 16 -a 1 -x {2.0 0.0 5 ------- null}
- -t 0.25336 -s 3 -d 0 -p ack -e 40 -c 1 -i 16 -a 1 -x {2.0 0.0 5 ------- null}
h -t 0.25336 -s 3 -d 0 -p ack -e 40 -c 1 -i 16 -a 1 -x {2.0 0.0 -1 ------- null}
r -t 0.25512 -s 1 -d 3 -p tcp -e 1040 -c 2 -i 14 -a 2 -x {1.0 4.0 1 ------- null}
+ -t 0.25512 -s 3 -d 4 -p tcp -e 1040 -c 2 -i 14 -a 2 -x {1.0 4.0 1 ------- null}
- -t 0.25512 -s 3 -d 4 -p tcp -e 1040 -c 2 -i 14 -a 2 -x {1.0 4.0 1 ------- null}
h -t 0.25512 -s 3 -d 4 -p tcp -e 1040 -c 2 -i 14 -a 2 -x {1.0 4.0 -1 ------- null}
r -t 0.2552 -s 3 -d 0 -p ack -e 40 -c 1 -i 13 -a 1 -x {2.0 0.0 4 ------- null}
+ -t 0.2552 -s 0 -d 3 -p tcp -e 1040 -c 1 -i 20 -a 1 -x {0.0 2.0 9 ------- null}
+ -t 0.2552 -s 0 -d 3 -p tcp -e 1040 -c 1 -i 21 -a 1 -x {0.0 2.0 10 ------- null}
- -t 0.2552 -s 0 -d 3 -p tcp -e 1040 -c 1 -i 20 -a 1 -x {0.0 2.0 9 ------- null}
h -t 0.2552 -s 0 -d 3 -p tcp -e 1040 -c 1 -i 20 -a 1 -x {0.0 2.0 -1 ------- null}
r -t 0.25928 -s 1 -d 3 -p tcp -e 1040 -c 2 -i 15 -a 2 -x {1.0 4.0 2 ------- null}
+ -t 0.25928 -s 3 -d 4 -p tcp -e 1040 -c 2 -i 15 -a 2 -x {1.0 4.0 2 ------- null}
- -t 0.25936 -s 0 -d 3 -p tcp -e 1040 -c 1 -i 21 -a 1 -x {0.0 2.0 10 ------- null}
h -t 0.25936 -s 0 -d 3 -p tcp -e 1040 -c 1 -i 21 -a 1 -x {0.0 2.0 -1 ------- null}
r -t 0.26104 -s 0 -d 3 -p tcp -e 1040 -c 1 -i 17 -a 1 -x {0.0 2.0 7 ------- null}
+ -t 0.26104 -s 3 -d 2 -p tcp -e 1040 -c 1 -i 17 -a 1 -x {0.0 2.0 7 ------- null}
- -t 0.26104 -s 3 -d 2 -p tcp -e 1040 -c 1 -i 17 -a 1 -x {0.0 2.0 7 ------- null}
h -t 0.26104 -s 3 -d 2 -p tcp -e 1040 -c 1 -i 17 -a 1 -x {0.0 2.0 -1 ------- null}
r -t 0.26168 -s 2 -d 3 -p ack -e 40 -c 1 -i 19 -a 1 -x {2.0 0.0 6 ------- null}
+ -t 0.26168 -s 3 -d 0 -p ack -e 40 -c 1 -i 19 -a 1 -x {2.0 0.0 6 ------- null}
- -t 0.26168 -s 3 -d 0 -p ack -e 40 -c 1 -i 19 -a 1 -x {2.0 0.0 6 ------- null}
h -t 0.26168 -s 3 -d 0 -p ack -e 40 -c 1 -i 19 -a 1 -x {2.0 0.0 -1 ------- null}
- -t 0.26344 -s 3 -d 4 -p tcp -e 1040 -c 2 -i 15 -a 2 -x {1.0 4.0 2 ------- null}
h -t 0.26344 -s 3 -d 4 -p tcp -e 1040 -c 2 -i 15 -a 2 -x {1.0 4.0 -1 ------- null}
r -t 0.26352 -s 3 -d 0 -p ack -e 40 -c 1 -i 16 -a 1 -x {2.0 0.0 5 ------- null}
+ -t 0.26352 -s 0 -d 3 -p tcp -e 1040 -c 1 -i 22 -a 1 -x {0.0 2.0 11 ------- null}
+ -t 0.26352 -s 0 -d 3 -p tcp -e 1040 -c 1 -i 23 -a 1 -x {0.0 2.0 12 ------- null}
- -t 0.26352 -s 0 -d 3 -p tcp -e 1040 -c 1 -i 22 -a 1 -x {0.0 2.0 11 ------- null}
h -t 0.26352 -s 0 -d 3 -p tcp -e 1040 -c 1 -i 22 -a 1 -x {0.0 2.0 -1 ------- null}
r -t 0.2652 -s 0 -d 3 -p tcp -e 1040 -c 1 -i 18 -a 1 -x {0.0 2.0 8 ------- null}
+ -t 0.2652 -s 3 -d 2 -p tcp -e 1040 -c 1 -i 18 -a 1 -x {0.0 2.0 8 ------- null}
- -t 0.26768 -s 0 -d 3 -p tcp -e 1040 -c 1 -i 23 -a 1 -x {0.0 2.0 12 ------- null}
h -t 0.26768 -s 0 -d 3 -p tcp -e 1040 -c 1 -i 23 -a 1 -x {0.0 2.0 -1 ------- null}
- -t 0.26936 -s 3 -d 2 -p tcp -e 1040 -c 1 -i 18 -a 1 -x {0.0 2.0 8 ------- null}
h -t 0.26936 -s 3 -d 2 -p tcp -e 1040 -c 1 -i 18 -a 1 -x {0.0 2.0 -1 ------- null}
r -t 0.26936 -s 0 -d 3 -p tcp -e 1040 -c 1 -i 20 -a 1 -x {0.0 2.0 9 ------- null}
+ -t 0.26936 -s 3 -d 2 -p tcp -e 1040 -c 1 -i 20 -a 1 -x {0.0 2.0 9 ------- null}
r -t 0.27184 -s 3 -d 0 -p ack -e 40 -c 1 -i 19 -a 1 -x {2.0 0.0 6 ------- null}
+ -t 0.27184 -s 0 -d 3 -p tcp -e 1040 -c 1 -i 24 -a 1 -x {0.0 2.0 13 ------- null}
+ -t 0.27184 -s 0 -d 3 -p tcp -e 1040 -c 1 -i 25 -a 1 -x {0.0 2.0 14 ------- null}
- -t 0.27184 -s 0 -d 3 -p tcp -e 1040 -c 1 -i 24 -a 1 -x {0.0 2.0 13 ------- null}
h -t 0.27184 -s 0 -d 3 -p tcp -e 1040 -c 1 -i 24 -a 1 -x {0.0 2.0 -1 ------- null}
r -t 0.27344 -s 3 -d 4 -p tcp -e 1040 -c 2 -i 14 -a 2 -x {1.0 4.0 1 ------- null}
+ -t 0.27344 -s 4 -d 3 -p ack -e 40 -c 2 -i 26 -a 2 -x {4.0 1.0 1 ------- null}
- -t 0.27344 -s 4 -d 3 -p ack -e 40 -c 2 -i 26 -a 2 -x {4.0 1.0 1 ------- null}
h -t 0.27344 -s 4 -d 3 -p ack -e 40 -c 2 -i 26 -a 2 -x {4.0 1.0 -1 ------- null}
r -t 0.27352 -s 0 -d 3 -p tcp -e 1040 -c 1 -i 21 -a 1 -x {0.0 2.0 10 ------- null}
+ -t 0.27352 -s 3 -d 2 -p tcp -e 1040 -c 1 -i 21 -a 1 -x {0.0 2.0 10 ------- null}
- -t 0.276 -s 0 -d 3 -p tcp -e 1040 -c 1 -i 25 -a 1 -x {0.0 2.0 14 ------- null}
h -t 0.276 -s 0 -d 3 -p tcp -e 1040 -c 1 -i 25 -a 1 -x {0.0 2.0 -1 ------- null}
- -t 0.27768 -s 3 -d 2 -p tcp -e 1040 -c 1 -i 20 -a 1 -x {0.0 2.0 9 ------- null}
h -t 0.27768 -s 3 -d 2 -p tcp -e 1040 -c 1 -i 20 -a 1 -x {0.0 2.0 -1 ------- null}
r -t 0.27768 -s 0 -d 3 -p tcp -e 1040 -c 1 -i 22 -a 1 -x {0.0 2.0 11 ------- null}
+ -t 0.27768 -s 3 -d 2 -p tcp -e 1040 -c 1 -i 22 -a 1 -x {0.0 2.0 11 ------- null}
r -t 0.27936 -s 3 -d 2 -p tcp -e 1040 -c 1 -i 17 -a 1 -x {0.0 2.0 7 ------- null}
+ -t 0.27936 -s 2 -d 3 -p ack -e 40 -c 1 -i 27 -a 1 -x {2.0 0.0 7 ------- null}
- -t 0.27936 -s 2 -d 3 -p ack -e 40 -c 1 -i 27 -a 1 -x {2.0 0.0 7 ------- null}
h -t 0.27936 -s 2 -d 3 -p ack -e 40 -c 1 -i 27 -a 1 -x {2.0 0.0 -1 ------- null}
r -t 0.28176 -s 3 -d 4 -p tcp -e 1040 -c 2 -i 15 -a 2 -x {1.0 4.0 2 ------- null}
+ -t 0.28176 -s 4 -d 3 -p ack -e 40 -c 2 -i 28 -a 2 -x {4.0 1.0 2 ------- null}
- -t 0.28176 -s 4 -d 3 -p ack -e 40 -c 2 -i 28 -a 2 -x {4.0 1.0 2 ------- null}
h -t 0.28176 -s 4 -d 3 -p ack -e 40 -c 2 -i 28 -a 2 -x {4.0 1.0 -1 ------- null}
r -t 0.28184 -s 0 -d 3 -p tcp -e 1040 -c 1 -i 23 -a 1 -x {0.0 2.0 12 ------- null}
+ -t 0.28184 -s 3 -d 2 -p tcp -e 1040 -c 1 -i 23 -a 1 -x {0.0 2.0 12 ------- null}
r -t 0.28376 -s 4 -d 3 -p ack -e 40 -c 2 -i 26 -a 2 -x {4.0 1.0 1 ------- null}
+ -t 0.28376 -s 3 -d 1 -p ack -e 40 -c 2 -i 26 -a 2 -x {4.0 1.0 1 ------- null}
- -t 0.28376 -s 3 -d 1 -p ack -e 40 -c 2 -i 26 -a 2 -x {4.0 1.0 1 ------- null}
h -t 0.28376 -s 3 -d 1 -p ack -e 40 -c 2 -i 26 -a 2 -x {4.0 1.0 -1 ------- null}
- -t 0.286 -s 3 -d 2 -p tcp -e 1040 -c 1 -i 21 -a 1 -x {0.0 2.0 10 ------- null}
h -t 0.286 -s 3 -d 2 -p tcp -e 1040 -c 1 -i 21 -a 1 -x {0.0 2.0 -1 ------- null}
r -t 0.286 -s 0 -d 3 -p tcp -e 1040 -c 1 -i 24 -a 1 -x {0.0 2.0 13 ------- null}
+ -t 0.286 -s 3 -d 2 -p tcp -e 1040 -c 1 -i 24 -a 1 -x {0.0 2.0 13 ------- null}
r -t 0.28768 -s 3 -d 2 -p tcp -e 1040 -c 1 -i 18 -a 1 -x {0.0 2.0 8 ------- null}
+ -t 0.28768 -s 2 -d 3 -p ack -e 40 -c 1 -i 29 -a 1 -x {2.0 0.0 8 ------- null}
- -t 0.28768 -s 2 -d 3 -p ack -e 40 -c 1 -i 29 -a 1 -x {2.0 0.0 8 ------- null}
h -t 0.28768 -s 2 -d 3 -p ack -e 40 -c 1 -i 29 -a 1 -x {2.0 0.0 -1 ------- null}
r -t 0.28968 -s 2 -d 3 -p ack -e 40 -c 1 -i 27 -a 1 -x {2.0 0.0 7 ------- null}
+ -t 0.28968 -s 3 -d 0 -p ack -e 40 -c 1 -i 27 -a 1 -x {2.0 0.0 7 ------- null}
- -t 0.28968 -s 3 -d 0 -p ack -e 40 -c 1 -i 27 -a 1 -x {2.0 0.0 7 ------- null}
h -t 0.28968 -s 3 -d 0 -p ack -e 40 -c 1 -i 27 -a 1 -x {2.0 0.0 -1 ------- null}
r -t 0.29016 -s 0 -d 3 -p tcp -e 1040 -c 1 -i 25 -a 1 -x {0.0 2.0 14 ------- null}
+ -t 0.29016 -s 3 -d 2 -p tcp -e 1040 -c 1 -i 25 -a 1 -x {0.0 2.0 14 ------- null}
r -t 0.29208 -s 4 -d 3 -p ack -e 40 -c 2 -i 28 -a 2 -x {4.0 1.0 2 ------- null}
+ -t 0.29208 -s 3 -d 1 -p ack -e 40 -c 2 -i 28 -a 2 -x {4.0 1.0 2 ------- null}
- -t 0.29208 -s 3 -d 1 -p ack -e 40 -c 2 -i 28 -a 2 -x {4.0 1.0 2 ------- null}
h -t 0.29208 -s 3 -d 1 -p ack -e 40 -c 2 -i 28 -a 2 -x {4.0 1.0 -1 ------- null}
r -t 0.29392 -s 3 -d 1 -p ack -e 40 -c 2 -i 26 -a 2 -x {4.0 1.0 1 ------- null}
+ -t 0.29392 -s 1 -d 3 -p tcp -e 1040 -c 2 -i 30 -a 2 -x {1.0 4.0 3 ------- null}
- -t 0.29392 -s 1 -d 3 -p tcp -e 1040 -c 2 -i 30 -a 2 -x {1.0 4.0 3 ------- null}
h -t 0.29392 -s 1 -d 3 -p tcp -e 1040 -c 2 -i 30 -a 2 -x {1.0 4.0 -1 ------- null}
+ -t 0.29392 -s 1 -d 3 -p tcp -e 1040 -c 2 -i 31 -a 2 -x {1.0 4.0 4 ------- null}
- -t 0.29432 -s 3 -d 2 -p tcp -e 1040 -c 1 -i 22 -a 1 -x {0.0 2.0 11 ------- null}
h -t 0.29432 -s 3 -d 2 -p tcp -e 1040 -c 1 -i 22 -a 1 -x {0.0 2.0 -1 ------- null}
r -t 0.296 -s 3 -d 2 -p tcp -e 1040 -c 1 -i 20 -a 1 -x {0.0 2.0 9 ------- null}
+ -t 0.296 -s 2 -d 3 -p ack -e 40 -c 1 -i 32 -a 1 -x {2.0 0.0 9 ------- null}
- -t 0.296 -s 2 -d 3 -p ack -e 40 -c 1 -i 32 -a 1 -x {2.0 0.0 9 ------- null}
h -t 0.296 -s 2 -d 3 -p ack -e 40 -c 1 -i 32 -a 1 -x {2.0 0.0 -1 ------- null}
r -t 0.298 -s 2 -d 3 -p ack -e 40 -c 1 -i 29 -a 1 -x {2.0 0.0 8 ------- null}
+ -t 0.298 -s 3 -d 0 -p ack -e 40 -c 1 -i 29 -a 1 -x {2.0 0.0 8 ------- null}
- -t 0.298 -s 3 -d 0 -p ack -e 40 -c 1 -i 29 -a 1 -x {2.0 0.0 8 ------- null}
h -t 0.298 -s 3 -d 0 -p ack -e 40 -c 1 -i 29 -a 1 -x {2.0 0.0 -1 ------- null}
- -t 0.29808 -s 1 -d 3 -p tcp -e 1040 -c 2 -i 31 -a 2 -x {1.0 4.0 4 ------- null}
h -t 0.29808 -s 1 -d 3 -p tcp -e 1040 -c 2 -i 31 -a 2 -x {1.0 4.0 -1 ------- null}
r -t 0.29984 -s 3 -d 0 -p ack -e 40 -c 1 -i 27 -a 1 -x {2.0 0.0 7 ------- null}
+ -t 0.29984 -s 0 -d 3 -p tcp -e 1040 -c 1 -i 33 -a 1 -x {0.0 2.0 15 ------- null}
- -t 0.29984 -s 0 -d 3 -p tcp -e 1040 -c 1 -i 33 -a 1 -x {0.0 2.0 15 ------- null}
h -t 0.29984 -s 0 -d 3 -p tcp -e 1040 -c 1 -i 33 -a 1 -x {0.0 2.0 -1 ------- null}
+ -t 0.29984 -s 0 -d 3 -p tcp -e 1040 -c 1 -i 34 -a 1 -x {0.0 2.0 16 ------- null}
r -t 0.30224 -s 3 -d 1 -p ack -e 40 -c 2 -i 28 -a 2 -x {4.0 1.0 2 ------- null}
+ -t 0.30224 -s 1 -d 3 -p tcp -e 1040 -c 2 -i 35 -a 2 -x {1.0 4.0 5 ------- null}
+ -t 0.30224 -s 1 -d 3 -p tcp -e 1040 -c 2 -i 36 -a 2 -x {1.0 4.0 6 ------- null}
- -t 0.30224 -s 1 -d 3 -p tcp -e 1040 -c 2 -i 35 -a 2 -x {1.0 4.0 5 ------- null}
h -t 0.30224 -s 1 -d 3 -p tcp -e 1040 -c 2 -i 35 -a 2 -x {1.0 4.0 -1 ------- null}
- -t 0.30264 -s 3 -d 2 -p tcp -e 1040 -c 1 -i 23 -a 1 -x {0.0 2.0 12 ------- null}
h -t 0.30264 -s 3 -d 2 -p tcp -e 1040 -c 1 -i 23 -a 1 -x {0.0 2.0 -1 ------- null}
- -t 0.304 -s 0 -d 3 -p tcp -e 1040 -c 1 -i 34 -a 1 -x {0.0 2.0 16 ------- null}
h -t 0.304 -s 0 -d 3 -p tcp -e 1040 -c 1 -i 34 -a 1 -x {0.0 2.0 -1 ------- null}
r -t 0.30432 -s 3 -d 2 -p tcp -e 1040 -c 1 -i 21 -a 1 -x {0.0 2.0 10 ------- null}
+ -t 0.30432 -s 2 -d 3 -p ack -e 40 -c 1 -i 37 -a 1 -x {2.0 0.0 10 ------- null}
- -t 0.30432 -s 2 -d 3 -p ack -e 40 -c 1 -i 37 -a 1 -x {2.0 0.0 10 ------- null}
h -t 0.30432 -s 2 -d 3 -p ack -e 40 -c 1 -i 37 -a 1 -x {2.0 0.0 -1 ------- null}
r -t 0.30632 -s 2 -d 3 -p ack -e 40 -c 1 -i 32 -a 1 -x {2.0 0.0 9 ------- null}
+ -t 0.30632 -s 3 -d 0 -p ack -e 40 -c 1 -i 32 -a 1 -x {2.0 0.0 9 ------- null}
- -t 0.30632 -s 3 -d 0 -p ack -e 40 -c 1 -i 32 -a 1 -x {2.0 0.0 9 ------- null}
h -t 0.30632 -s 3 -d 0 -p ack -e 40 -c 1 -i 32 -a 1 -x {2.0 0.0 -1 ------- null}
- -t 0.3064 -s 1 -d 3 -p tcp -e 1040 -c 2 -i 36 -a 2 -x {1.0 4.0 6 ------- null}
h -t 0.3064 -s 1 -d 3 -p tcp -e 1040 -c 2 -i 36 -a 2 -x {1.0 4.0 -1 ------- null}
r -t 0.30808 -s 1 -d 3 -p tcp -e 1040 -c 2 -i 30 -a 2 -x {1.0 4.0 3 ------- null}
+ -t 0.30808 -s 3 -d 4 -p tcp -e 1040 -c 2 -i 30 -a 2 -x {1.0 4.0 3 ------- null}
- -t 0.30808 -s 3 -d 4 -p tcp -e 1040 -c 2 -i 30 -a 2 -x {1.0 4.0 3 ------- null}
h -t 0.30808 -s 3 -d 4 -p tcp -e 1040 -c 2 -i 30 -a 2 -x {1.0 4.0 -1 ------- null}
r -t 0.30816 -s 3 -d 0 -p ack -e 40 -c 1 -i 29 -a 1 -x {2.0 0.0 8 ------- null}
+ -t 0.30816 -s 0 -d 3 -p tcp -e 1040 -c 1 -i 38 -a 1 -x {0.0 2.0 17 ------- null}
+ -t 0.30816 -s 0 -d 3 -p tcp -e 1040 -c 1 -i 39 -a 1 -x {0.0 2.0 18 ------- null}
- -t 0.30816 -s 0 -d 3 -p tcp -e 1040 -c 1 -i 38 -a 1 -x {0.0 2.0 17 ------- null}
h -t 0.30816 -s 0 -d 3 -p tcp -e 1040 -c 1 -i 38 -a 1 -x {0.0 2.0 -1 ------- null}
- -t 0.31096 -s 3 -d 2 -p tcp -e 1040 -c 1 -i 24 -a 1 -x {0.0 2.0 13 ------- null}
h -t 0.31096 -s 3 -d 2 -p tcp -e 1040 -c 1 -i 24 -a 1 -x {0.0 2.0 -1 ------- null}
r -t 0.31224 -s 1 -d 3 -p tcp -e 1040 -c 2 -i 31 -a 2 -x {1.0 4.0 4 ------- null}
+ -t 0.31224 -s 3 -d 4 -p tcp -e 1040 -c 2 -i 31 -a 2 -x {1.0 4.0 4 ------- null}
- -t 0.31232 -s 0 -d 3 -p tcp -e 1040 -c 1 -i 39 -a 1 -x {0.0 2.0 18 ------- null}
h -t 0.31232 -s 0 -d 3 -p tcp -e 1040 -c 1 -i 39 -a 1 -x {0.0 2.0 -1 ------- null}
r -t 0.31264 -s 3 -d 2 -p tcp -e 1040 -c 1 -i 22 -a 1 -x {0.0 2.0 11 ------- null}
+ -t 0.31264 -s 2 -d 3 -p ack -e 40 -c 1 -i 40 -a 1 -x {2.0 0.0 11 ------- null}
- -t 0.31264 -s 2 -d 3 -p ack -e 40 -c 1 -i 40 -a 1 -x {2.0 0.0 11 ------- null}
h -t 0.31264 -s 2 -d 3 -p ack -e 40 -c 1 -i 40 -a 1 -x {2.0 0.0 -1 ------- null}
r -t 0.314 -s 0 -d 3 -p tcp -e 1040 -c 1 -i 33 -a 1 -x {0.0 2.0 15 ------- null}
+ -t 0.314 -s 3 -d 2 -p tcp -e 1040 -c 1 -i 33 -a 1 -x {0.0 2.0 15 ------- null}
r -t 0.31464 -s 2 -d 3 -p ack -e 40 -c 1 -i 37 -a 1 -x {2.0 0.0 10 ------- null}
+ -t 0.31464 -s 3 -d 0 -p ack -e 40 -c 1 -i 37 -a 1 -x {2.0 0.0 10 ------- null}
- -t 0.31464 -s 3 -d 0 -p ack -e 40 -c 1 -i 37 -a 1 -x {2.0 0.0 10 ------- null}
h -t 0.31464 -s 3 -d 0 -p ack -e 40 -c 1 -i 37 -a 1 -x {2.0 0.0 -1 ------- null}
r -t 0.3164 -s 1 -d 3 -p tcp -e 1040 -c 2 -i 35 -a 2 -x {1.0 4.0 5 ------- null}
+ -t 0.3164 -s 3 -d 4 -p tcp -e 1040 -c 2 -i 35 -a 2 -x {1.0 4.0 5 ------- null}
- -t 0.3164 -s 3 -d 4 -p tcp -e 1040 -c 2 -i 31 -a 2 -x {1.0 4.0 4 ------- null}
h -t 0.3164 -s 3 -d 4 -p tcp -e 1040 -c 2 -i 31 -a 2 -x {1.0 4.0 -1 ------- null}
r -t 0.31648 -s 3 -d 0 -p ack -e 40 -c 1 -i 32 -a 1 -x {2.0 0.0 9 ------- null}
+ -t 0.31648 -s 0 -d 3 -p tcp -e 1040 -c 1 -i 41 -a 1 -x {0.0 2.0 19 ------- null}
+ -t 0.31648 -s 0 -d 3 -p tcp -e 1040 -c 1 -i 42 -a 1 -x {0.0 2.0 20 ------- null}
- -t 0.31648 -s 0 -d 3 -p tcp -e 1040 -c 1 -i 41 -a 1 -x {0.0 2.0 19 ------- null}
h -t 0.31648 -s 0 -d 3 -p tcp -e 1040 -c 1 -i 41 -a 1 -x {0.0 2.0 -1 ------- null}
r -t 0.31816 -s 0 -d 3 -p tcp -e 1040 -c 1 -i 34 -a 1 -x {0.0 2.0 16 ------- null}
+ -t 0.31816 -s 3 -d 2 -p tcp -e 1040 -c 1 -i 34 -a 1 -x {0.0 2.0 16 ------- null}
- -t 0.31928 -s 3 -d 2 -p tcp -e 1040 -c 1 -i 25 -a 1 -x {0.0 2.0 14 ------- null}
h -t 0.31928 -s 3 -d 2 -p tcp -e 1040 -c 1 -i 25 -a 1 -x {0.0 2.0 -1 ------- null}
r -t 0.32056 -s 1 -d 3 -p tcp -e 1040 -c 2 -i 36 -a 2 -x {1.0 4.0 6 ------- null}
+ -t 0.32056 -s 3 -d 4 -p tcp -e 1040 -c 2 -i 36 -a 2 -x {1.0 4.0 6 ------- null}
- -t 0.32064 -s 0 -d 3 -p tcp -e 1040 -c 1 -i 42 -a 1 -x {0.0 2.0 20 ------- null}
h -t 0.32064 -s 0 -d 3 -p tcp -e 1040 -c 1 -i 42 -a 1 -x {0.0 2.0 -1 ------- null}
r -t 0.32096 -s 3 -d 2 -p tcp -e 1040 -c 1 -i 23 -a 1 -x {0.0 2.0 12 ------- null}
+ -t 0.32096 -s 2 -d 3 -p ack -e 40 -c 1 -i 43 -a 1 -x {2.0 0.0 12 ------- null}
- -t 0.32096 -s 2 -d 3 -p ack -e 40 -c 1 -i 43 -a 1 -x {2.0 0.0 12 ------- null}
h -t 0.32096 -s 2 -d 3 -p ack -e 40 -c 1 -i 43 -a 1 -x {2.0 0.0 -1 ------- null}
r -t 0.32232 -s 0 -d 3 -p tcp -e 1040 -c 1 -i 38 -a 1 -x {0.0 2.0 17 ------- null}
+ -t 0.32232 -s 3 -d 2 -p tcp -e 1040 -c 1 -i 38 -a 1 -x {0.0 2.0 17 ------- null}
r -t 0.32296 -s 2 -d 3 -p ack -e 40 -c 1 -i 40 -a 1 -x {2.0 0.0 11 ------- null}
+ -t 0.32296 -s 3 -d 0 -p ack -e 40 -c 1 -i 40 -a 1 -x {2.0 0.0 11 ------- null}
- -t 0.32296 -s 3 -d 0 -p ack -e 40 -c 1 -i 40 -a 1 -x {2.0 0.0 11 ------- null}
h -t 0.32296 -s 3 -d 0 -p ack -e 40 -c 1 -i 40 -a 1 -x {2.0 0.0 -1 ------- null}
- -t 0.32472 -s 3 -d 4 -p tcp -e 1040 -c 2 -i 35 -a 2 -x {1.0 4.0 5 ------- null}
h -t 0.32472 -s 3 -d 4 -p tcp -e 1040 -c 2 -i 35 -a 2 -x {1.0 4.0 -1 ------- null}
r -t 0.3248 -s 3 -d 0 -p ack -e 40 -c 1 -i 37 -a 1 -x {2.0 0.0 10 ------- null}
+ -t 0.3248 -s 0 -d 3 -p tcp -e 1040 -c 1 -i 44 -a 1 -x {0.0 2.0 21 ------- null}
+ -t 0.3248 -s 0 -d 3 -p tcp -e 1040 -c 1 -i 45 -a 1 -x {0.0 2.0 22 ------- null}
- -t 0.3248 -s 0 -d 3 -p tcp -e 1040 -c 1 -i 44 -a 1 -x {0.0 2.0 21 ------- null}
h -t 0.3248 -s 0 -d 3 -p tcp -e 1040 -c 1 -i 44 -a 1 -x {0.0 2.0 -1 ------- null}
r -t 0.3264 -s 3 -d 4 -p tcp -e 1040 -c 2 -i 30 -a 2 -x {1.0 4.0 3 ------- null}
+ -t 0.3264 -s 4 -d 3 -p ack -e 40 -c 2 -i 46 -a 2 -x {4.0 1.0 3 ------- null}
- -t 0.3264 -s 4 -d 3 -p ack -e 40 -c 2 -i 46 -a 2 -x {4.0 1.0 3 ------- null}
h -t 0.3264 -s 4 -d 3 -p ack -e 40 -c 2 -i 46 -a 2 -x {4.0 1.0 -1 ------- null}
r -t 0.32648 -s 0 -d 3 -p tcp -e 1040 -c 1 -i 39 -a 1 -x {0.0 2.0 18 ------- null}
+ -t 0.32648 -s 3 -d 2 -p tcp -e 1040 -c 1 -i 39 -a 1 -x {0.0 2.0 18 ------- null}
- -t 0.3276 -s 3 -d 2 -p tcp -e 1040 -c 1 -i 33 -a 1 -x {0.0 2.0 15 ------- null}
h -t 0.3276 -s 3 -d 2 -p tcp -e 1040 -c 1 -i 33 -a 1 -x {0.0 2.0 -1 ------- null}
- -t 0.32896 -s 0 -d 3 -p tcp -e 1040 -c 1 -i 45 -a 1 -x {0.0 2.0 22 ------- null}
h -t 0.32896 -s 0 -d 3 -p tcp -e 1040 -c 1 -i 45 -a 1 -x {0.0 2.0 -1 ------- null}
r -t 0.32928 -s 3 -d 2 -p tcp -e 1040 -c 1 -i 24 -a 1 -x {0.0 2.0 13 ------- null}
+ -t 0.32928 -s 2 -d 3 -p ack -e 40 -c 1 -i 47 -a 1 -x {2.0 0.0 13 ------- null}
- -t 0.32928 -s 2 -d 3 -p ack -e 40 -c 1 -i 47 -a 1 -x {2.0 0.0 13 ------- null}
h -t 0.32928 -s 2 -d 3 -p ack -e 40 -c 1 -i 47 -a 1 -x {2.0 0.0 -1 ------- null}
r -t 0.33064 -s 0 -d 3 -p tcp -e 1040 -c 1 -i 41 -a 1 -x {0.0 2.0 19 ------- null}
+ -t 0.33064 -s 3 -d 2 -p tcp -e 1040 -c 1 -i 41 -a 1 -x {0.0 2.0 19 ------- null}
r -t 0.33128 -s 2 -d 3 -p ack -e 40 -c 1 -i 43 -a 1 -x {2.0 0.0 12 ------- null}
+ -t 0.33128 -s 3 -d 0 -p ack -e 40 -c 1 -i 43 -a 1 -x {2.0 0.0 12 ------- null}
- -t 0.33128 -s 3 -d 0 -p ack -e 40 -c 1 -i 43 -a 1 -x {2.0 0.0 12 ------- null}
h -t 0.33128 -s 3 -d 0 -p ack -e 40 -c 1 -i 43 -a 1 -x {2.0 0.0 -1 ------- null}
- -t 0.33304 -s 3 -d 4 -p tcp -e 1040 -c 2 -i 36 -a 2 -x {1.0 4.0 6 ------- null}
h -t 0.33304 -s 3 -d 4 -p tcp -e 1040 -c 2 -i 36 -a 2 -x {1.0 4.0 -1 ------- null}
r -t 0.33312 -s 3 -d 0 -p ack -e 40 -c 1 -i 40 -a 1 -x {2.0 0.0 11 ------- null}
+ -t 0.33312 -s 0 -d 3 -p tcp -e 1040 -c 1 -i 48 -a 1 -x {0.0 2.0 23 ------- null}
+ -t 0.33312 -s 0 -d 3 -p tcp -e 1040 -c 1 -i 49 -a 1 -x {0.0 2.0 24 ------- null}
- -t 0.33312 -s 0 -d 3 -p tcp -e 1040 -c 1 -i 48 -a 1 -x {0.0 2.0 23 ------- null}
h -t 0.33312 -s 0 -d 3 -p tcp -e 1040 -c 1 -i 48 -a 1 -x {0.0 2.0 -1 ------- null}
r -t 0.33472 -s 3 -d 4 -p tcp -e 1040 -c 2 -i 31 -a 2 -x {1.0 4.0 4 ------- null}
+ -t 0.33472 -s 4 -d 3 -p ack -e 40 -c 2 -i 50 -a 2 -x {4.0 1.0 4 ------- null}
- -t 0.33472 -s 4 -d 3 -p ack -e 40 -c 2 -i 50 -a 2 -x {4.0 1.0 4 ------- null}
h -t 0.33472 -s 4 -d 3 -p ack -e 40 -c 2 -i 50 -a 2 -x {4.0 1.0 -1 ------- null}
r -t 0.3348 -s 0 -d 3 -p tcp -e 1040 -c 1 -i 42 -a 1 -x {0.0 2.0 20 ------- null}
+ -t 0.3348 -s 3 -d 2 -p tcp -e 1040 -c 1 -i 42 -a 1 -x {0.0 2.0 20 ------- null}
- -t 0.33592 -s 3 -d 2 -p tcp -e 1040 -c 1 -i 34 -a 1 -x {0.0 2.0 16 ------- null}
h -t 0.33592 -s 3 -d 2 -p tcp -e 1040 -c 1 -i 34 -a 1 -x {0.0 2.0 -1 ------- null}
r -t 0.33672 -s 4 -d 3 -p ack -e 40 -c 2 -i 46 -a 2 -x {4.0 1.0 3 ------- null}
+ -t 0.33672 -s 3 -d 1 -p ack -e 40 -c 2 -i 46 -a 2 -x {4.0 1.0 3 ------- null}
- -t 0.33672 -s 3 -d 1 -p ack -e 40 -c 2 -i 46 -a 2 -x {4.0 1.0 3 ------- null}
h -t 0.33672 -s 3 -d 1 -p ack -e 40 -c 2 -i 46 -a 2 -x {4.0 1.0 -1 ------- null}
- -t 0.33728 -s 0 -d 3 -p tcp -e 1040 -c 1 -i 49 -a 1 -x {0.0 2.0 24 ------- null}
h -t 0.33728 -s 0 -d 3 -p tcp -e 1040 -c 1 -i 49 -a 1 -x {0.0 2.0 -1 ------- null}
r -t 0.3376 -s 3 -d 2 -p tcp -e 1040 -c 1 -i 25 -a 1 -x {0.0 2.0 14 ------- null}