+ 0.1 0 3 tcp 40 ------- 1 0.0 2.0 0 0
- 0.1 0 3 tcp 40 ------- 1 0.0 2.0 0 0
r 0.11016 0 3 tcp 40 ------- 1 0.0 2.0 0 0
+ 0.11016 3 2 tcp 40 ------- 1 0.0 2.0 0 0
- 0.11016 3 2 tcp 40 ------- 1 0.0 2.0 0 0
r 0.12048 3 2 tcp 40 ------- 1 0.0 2.0 0 0
+ 0.12048 2 3 ack 40 ------- 1 2.0 0.0 0 1
- 0.12048 2 3 ack 40 ------- 1 2.0 0.0 0 1
r 0.1308 2 3 ack 40 ------- 1 2.0 0.0 0 1
+ 0.1308 3 0 ack 40 ------- 1 2.0 0.0 0 1
- 0.1308 3 0 ack 40 ------- 1 2.0 0.0 0 1
r 0.14096 3 0 ack 40 ------- 1 2.0 0.0 0 1
+ 0.14096 0 3 tcp 1040 ------- 1 0.0 2.0 1 2
- 0.14096 0 3 tcp 1040 ------- 1 0.0 2.0 1 2
+ 0.14096 0 3 tcp 1040 ------- 1 0.0 2.0 2 3
- 0.14512 0 3 tcp 1040 ------- 1 0.0 2.0 2 3
r 0.15512 0 3 tcp 1040 ------- 1 0.0 2.0 1 2
+ 0.15512 3 2 tcp 1040 ------- 1 0.0 2.0 1 2
- 0.15512 3 2 tcp 1040 ------- 1 0.0 2.0 1 2
r 0.15928 0 3 tcp 1040 ------- 1 0.0 2.0 2 3
+ 0.15928 3 2 tcp 1040 ------- 1 0.0 2.0 2 3
- 0.16344 3 2 tcp 1040 ------- 1 0.0 2.0 2 3
r 0.17344 3 2 tcp 1040 ------- 1 0.0 2.0 1 2
+ 0.17344 2 3 ack 40 ------- 1 2.0 0.0 1 4
- 0.17344 2 3 ack 40 ------- 1 2.0 0.0 1 4
r 0.18176 3 2 tcp 1040 ------- 1 0.0 2.0 2 3
+ 0.18176 2 3 ack 40 ------- 1 2.0 0.0 2 5
- 0.18176 2 3 ack 40 ------- 1 2.0 0.0 2 5
r 0.18376 2 3 ack 40 ------- 1 2.0 0.0 1 4
+ 0.18376 3 0 ack 40 ------- 1 2.0 0.0 1 4
- 0.18376 3 0 ack 40 ------- 1 2.0 0.0 1 4
r 0.19208 2 3 ack 40 ------- 1 2.0 0.0 2 5
+ 0.19208 3 0 ack 40 ------- 1 2.0 0.0 2 5
- 0.19208 3 0 ack 40 ------- 1 2.0 0.0 2 5
r 0.19392 3 0 ack 40 ------- 1 2.0 0.0 1 4
+ 0.19392 0 3 tcp 1040 ------- 1 0.0 2.0 3 6
- 0.19392 0 3 tcp 1040 ------- 1 0.0 2.0 3 6
+ 0.19392 0 3 tcp 1040 ------- 1 0.0 2.0 4 7
- 0.19808 0 3 tcp 1040 ------- 1 0.0 2.0 4 7
+ 0.2 1 3 tcp 40 ------- 2 1.0 4.0 0 8
- 0.2 1 3 tcp 40 ------- 2 1.0 4.0 0 8
r 0.20224 3 0 ack 40 ------- 1 2.0 0.0 2 5
+ 0.20224 0 3 tcp 1040 ------- 1 0.0 2.0 5 9
+ 0.20224 0 3 tcp 1040 ------- 1 0.0 2.0 6 10
- 0.20224 0 3 tcp 1040 ------- 1 0.0 2.0 5 9
- 0.2064 0 3 tcp 1040 ------- 1 0.0 2.0 6 10
r 0.20808 0 3 tcp 1040 ------- 1 0.0 2.0 3 6
+ 0.20808 3 2 tcp 1040 ------- 1 0.0 2.0 3 6
- 0.20808 3 2 tcp 1040 ------- 1 0.0 2.0 3 6
r 0.21016 1 3 tcp 40 ------- 2 1.0 4.0 0 8
+ 0.21016 3 4 tcp 40 ------- 2 1.0 4.0 0 8
- 0.21016 3 4 tcp 40 ------- 2 1.0 4.0 0 8
r 0.21224 0 3 tcp 1040 ------- 1 0.0 2.0 4 7
+ 0.21224 3 2 tcp 1040 ------- 1 0.0 2.0 4 7
r 0.2164 0 3 tcp 1040 ------- 1 0.0 2.0 5 9
+ 0.2164 3 2 tcp 1040 ------- 1 0.0 2.0 5 9
- 0.2164 3 2 tcp 1040 ------- 1 0.0 2.0 4 7
r 0.22048 3 4 tcp 40 ------- 2 1.0 4.0 0 8
+ 0.22048 4 3 ack 40 ------- 2 4.0 1.0 0 11
- 0.22048 4 3 ack 40 ------- 2 4.0 1.0 0 11
r 0.22056 0 3 tcp 1040 ------- 1 0.0 2.0 6 10
+ 0.22056 3 2 tcp 1040 ------- 1 0.0 2.0 6 10
- 0.22472 3 2 tcp 1040 ------- 1 0.0 2.0 5 9
r 0.2264 3 2 tcp 1040 ------- 1 0.0 2.0 3 6
+ 0.2264 2 3 ack 40 ------- 1 2.0 0.0 3 12
- 0.2264 2 3 ack 40 ------- 1 2.0 0.0 3 12
r 0.2308 4 3 ack 40 ------- 2 4.0 1.0 0 11
+ 0.2308 3 1 ack 40 ------- 2 4.0 1.0 0 11
- 0.2308 3 1 ack 40 ------- 2 4.0 1.0 0 11
- 0.23304 3 2 tcp 1040 ------- 1 0.0 2.0 6 10
r 0.23472 3 2 tcp 1040 ------- 1 0.0 2.0 4 7
+ 0.23472 2 3 ack 40 ------- 1 2.0 0.0 4 13
- 0.23472 2 3 ack 40 ------- 1 2.0 0.0 4 13
r 0.23672 2 3 ack 40 ------- 1 2.0 0.0 3 12
+ 0.23672 3 0 ack 40 ------- 1 2.0 0.0 3 12
- 0.23672 3 0 ack 40 ------- 1 2.0 0.0 3 12
r 0.24096 3 1 ack 40 ------- 2 4.0 1.0 0 11
+ 0.24096 1 3 tcp 1040 ------- 2 1.0 4.0 1 14
- 0.24096 1 3 tcp 1040 ------- 2 1.0 4.0 1 14
+ 0.24096 1 3 tcp 1040 ------- 2 1.0 4.0 2 15
r 0.24304 3 2 tcp 1040 ------- 1 0.0 2.0 5 9
+ 0.24304 2 3 ack 40 ------- 1 2.0 0.0 5 16
- 0.24304 2 3 ack 40 ------- 1 2.0 0.0 5 16
r 0.24504 2 3 ack 40 ------- 1 2.0 0.0 4 13
+ 0.24504 3 0 ack 40 ------- 1 2.0 0.0 4 13
- 0.24504 3 0 ack 40 ------- 1 2.0 0.0 4 13
- 0.24512 1 3 tcp 1040 ------- 2 1.0 4.0 2 15
r 0.24688 3 0 ack 40 ------- 1 2.0 0.0 3 12
+ 0.24688 0 3 tcp 1040 ------- 1 0.0 2.0 7 17
- 0.24688 0 3 tcp 1040 ------- 1 0.0 2.0 7 17
+ 0.24688 0 3 tcp 1040 ------- 1 0.0 2.0 8 18
- 0.25104 0 3 tcp 1040 ------- 1 0.0 2.0 8 18
r 0.25136 3 2 tcp 1040 ------- 1 0.0 2.0 6 10
+ 0.25136 2 3 ack 40 ------- 1 2.0 0.0 6 19
- 0.25136 2 3 ack 40 ------- 1 2.0 0.0 6 19
r 0.25336 2 3 ack 40 ------- 1 2.0 0.0 5 16
+ 0.25336 3 0 ack 40 ------- 1 2.0 0.0 5 16
- 0.25336 3 0 ack 40 ------- 1 2.0 0.0 5 16
r 0.25512 1 3 tcp 1040 ------- 2 1.0 4.0 1 14
+ 0.25512 3 4 tcp 1040 ------- 2 1.0 4.0 1 14
- 0.25512 3 4 tcp 1040 ------- 2 1.0 4.0 1 14
r 0.2552 3 0 ack 40 ------- 1 2.0 0.0 4 13
+ 0.2552 0 3 tcp 1040 ------- 1 0.0 2.0 9 20
+ 0.2552 0 3 tcp 1040 ------- 1 0.0 2.0 10 21
- 0.2552 0 3 tcp 1040 ------- 1 0.0 2.0 9 20
r 0.25928 1 3 tcp 1040 ------- 2 1.0 4.0 2 15
+ 0.25928 3 4 tcp 1040 ------- 2 1.0 4.0 2 15
- 0.25936 0 3 tcp 1040 ------- 1 0.0 2.0 10 21
r 0.26104 0 3 tcp 1040 ------- 1 0.0 2.0 7 17
+ 0.26104 3 2 tcp 1040 ------- 1 0.0 2.0 7 17
- 0.26104 3 2 tcp 1040 ------- 1 0.0 2.0 7 17
r 0.26168 2 3 ack 40 ------- 1 2.0 0.0 6 19
+ 0.26168 3 0 ack 40 ------- 1 2.0 0.0 6 19
- 0.26168 3 0 ack 40 ------- 1 2.0 0.0 6 19
- 0.26344 3 4 tcp 1040 ------- 2 1.0 4.0 2 15
r 0.26352 3 0 ack 40 ------- 1 2.0 0.0 5 16
+ 0.26352 0 3 tcp 1040 ------- 1 0.0 2.0 11 22
+ 0.26352 0 3 tcp 1040 ------- 1 0.0 2.0 12 23
- 0.26352 0 3 tcp 1040 ------- 1 0.0 2.0 11 22
r 0.2652 0 3 tcp 1040 ------- 1 0.0 2.0 8 18
+ 0.2652 3 2 tcp 1040 ------- 1 0.0 2.0 8 18
- 0.26768 0 3 tcp 1040 ------- 1 0.0 2.0 12 23
- 0.26936 3 2 tcp 1040 ------- 1 0.0 2.0 8 18
r 0.26936 0 3 tcp 1040 ------- 1 0.0 2.0 9 20
+ 0.26936 3 2 tcp 1040 ------- 1 0.0 2.0 9 20
r 0.27184 3 0 ack 40 ------- 1 2.0 0.0 6 19
+ 0.27184 0 3 tcp 1040 ------- 1 0.0 2.0 13 24
+ 0.27184 0 3 tcp 1040 ------- 1 0.0 2.0 14 25
- 0.27184 0 3 tcp 1040 ------- 1 0.0 2.0 13 24
r 0.27344 3 4 tcp 1040 ------- 2 1.0 4.0 1 14
+ 0.27344 4 3 ack 40 ------- 2 4.0 1.0 1 26
- 0.27344 4 3 ack 40 ------- 2 4.0 1.0 1 26
r 0.27352 0 3 tcp 1040 ------- 1 0.0 2.0 10 21
+ 0.27352 3 2 tcp 1040 ------- 1 0.0 2.0 10 21
- 0.276 0 3 tcp 1040 ------- 1 0.0 2.0 14 25
- 0.27768 3 2 tcp 1040 ------- 1 0.0 2.0 9 20
r 0.27768 0 3 tcp 1040 ------- 1 0.0 2.0 11 22
+ 0.27768 3 2 tcp 1040 ------- 1 0.0 2.0 11 22
r 0.27936 3 2 tcp 1040 ------- 1 0.0 2.0 7 17
+ 0.27936 2 3 ack 40 ------- 1 2.0 0.0 7 27
- 0.27936 2 3 ack 40 ------- 1 2.0 0.0 7 27
r 0.28176 3 4 tcp 1040 ------- 2 1.0 4.0 2 15
+ 0.28176 4 3 ack 40 ------- 2 4.0 1.0 2 28
- 0.28176 4 3 ack 40 ------- 2 4.0 1.0 2 28
r 0.28184 0 3 tcp 1040 ------- 1 0.0 2.0 12 23
+ 0.28184 3 2 tcp 1040 ------- 1 0.0 2.0 12 23
r 0.28376 4 3 ack 40 ------- 2 4.0 1.0 1 26
+ 0.28376 3 1 ack 40 ------- 2 4.0 1.0 1 26
- 0.28376 3 1 ack 40 ------- 2 4.0 1.0 1 26
- 0.286 3 2 tcp 1040 ------- 1 0.0 2.0 10 21
r 0.286 0 3 tcp 1040 ------- 1 0.0 2.0 13 24
+ 0.286 3 2 tcp 1040 ------- 1 0.0 2.0 13 24
r 0.28768 3 2 tcp 1040 ------- 1 0.0 2.0 8 18
+ 0.28768 2 3 ack 40 ------- 1 2.0 0.0 8 29
- 0.28768 2 3 ack 40 ------- 1 2.0 0.0 8 29
r 0.28968 2 3 ack 40 ------- 1 2.0 0.0 7 27
+ 0.28968 3 0 ack 40 ------- 1 2.0 0.0 7 27
- 0.28968 3 0 ack 40 ------- 1 2.0 0.0 7 27
r 0.29016 0 3 tcp 1040 ------- 1 0.0 2.0 14 25
+ 0.29016 3 2 tcp 1040 ------- 1 0.0 2.0 14 25
r 0.29208 4 3 ack 40 ------- 2 4.0 1.0 2 28
+ 0.29208 3 1 ack 40 ------- 2 4.0 1.0 2 28
- 0.29208 3 1 ack 40 ------- 2 4.0 1.0 2 28
r 0.29392 3 1 ack 40 ------- 2 4.0 1.0 1 26
+ 0.29392 1 3 tcp 1040 ------- 2 1.0 4.0 3 30
- 0.29392 1 3 tcp 1040 ------- 2 1.0 4.0 3 30
+ 0.29392 1 3 tcp 1040 ------- 2 1.0 4.0 4 31
- 0.29432 3 2 tcp 1040 ------- 1 0.0 2.0 11 22
r 0.296 3 2 tcp 1040 ------- 1 0.0 2.0 9 20
+ 0.296 2 3 ack 40 ------- 1 2.0 0.0 9 32
- 0.296 2 3 ack 40 ------- 1 2.0 0.0 9 32
r 0.298 2 3 ack 40 ------- 1 2.0 0.0 8 29
+ 0.298 3 0 ack 40 ------- 1 2.0 0.0 8 29
- 0.298 3 0 ack 40 ------- 1 2.0 0.0 8 29
- 0.29808 1 3 tcp 1040 ------- 2 1.0 4.0 4 31
r 0.29984 3 0 ack 40 ------- 1 2.0 0.0 7 27
+ 0.29984 0 3 tcp 1040 ------- 1 0.0 2.0 15 33
- 0.29984 0 3 tcp 1040 ------- 1 0.0 2.0 15 33
+ 0.29984 0 3 tcp 1040 ------- 1 0.0 2.0 16 34
r 0.30224 3 1 ack 40 ------- 2 4.0 1.0 2 28
+ 0.30224 1 3 tcp 1040 ------- 2 1.0 4.0 5 35
+ 0.30224 1 3 tcp 1040 ------- 2 1.0 4.0 6 36
- 0.30224 1 3 tcp 1040 ------- 2 1.0 4.0 5 35
- 0.30264 3 2 tcp 1040 ------- 1 0.0 2.0 12 23
- 0.304 0 3 tcp 1040 ------- 1 0.0 2.0 16 34
r 0.30432 3 2 tcp 1040 ------- 1 0.0 2.0 10 21
+ 0.30432 2 3 ack 40 ------- 1 2.0 0.0 10 37
- 0.30432 2 3 ack 40 ------- 1 2.0 0.0 10 37
r 0.30632 2 3 ack 40 ------- 1 2.0 0.0 9 32
+ 0.30632 3 0 ack 40 ------- 1 2.0 0.0 9 32
- 0.30632 3 0 ack 40 ------- 1 2.0 0.0 9 32
- 0.3064 1 3 tcp 1040 ------- 2 1.0 4.0 6 36
r 0.30808 1 3 tcp 1040 ------- 2 1.0 4.0 3 30
+ 0.30808 3 4 tcp 1040 ------- 2 1.0 4.0 3 30
- 0.30808 3 4 tcp 1040 ------- 2 1.0 4.0 3 30
r 0.30816 3 0 ack 40 ------- 1 2.0 0.0 8 29
+ 0.30816 0 3 tcp 1040 ------- 1 0.0 2.0 17 38
+ 0.30816 0 3 tcp 1040 ------- 1 0.0 2.0 18 39
- 0.30816 0 3 tcp 1040 ------- 1 0.0 2.0 17 38
- 0.31096 3 2 tcp 1040 ------- 1 0.0 2.0 13 24
r 0.31224 1 3 tcp 1040 ------- 2 1.0 4.0 4 31
+ 0.31224 3 4 tcp 1040 ------- 2 1.0 4.0 4 31
- 0.31232 0 3 tcp 1040 ------- 1 0.0 2.0 18 39
r 0.31264 3 2 tcp 1040 ------- 1 0.0 2.0 11 22
+ 0.31264 2 3 ack 40 ------- 1 2.0 0.0 11 40
- 0.31264 2 3 ack 40 ------- 1 2.0 0.0 11 40
r 0.314 0 3 tcp 1040 ------- 1 0.0 2.0 15 33
+ 0.314 3 2 tcp 1040 ------- 1 0.0 2.0 15 33
r 0.31464 2 3 ack 40 ------- 1 2.0 0.0 10 37
+ 0.31464 3 0 ack 40 ------- 1 2.0 0.0 10 37
- 0.31464 3 0 ack 40 ------- 1 2.0 0.0 10 37
r 0.3164 1 3 tcp 1040 ------- 2 1.0 4.0 5 35
+ 0.3164 3 4 tcp 1040 ------- 2 1.0 4.0 5 35
- 0.3164 3 4 tcp 1040 ------- 2 1.0 4.0 4 31
r 0.31648 3 0 ack 40 ------- 1 2.0 0.0 9 32
+ 0.31648 0 3 tcp 1040 ------- 1 0.0 2.0 19 41
+ 0.31648 0 3 tcp 1040 ------- 1 0.0 2.0 20 42
- 0.31648 0 3 tcp 1040 ------- 1 0.0 2.0 19 41
r 0.31816 0 3 tcp 1040 ------- 1 0.0 2.0 16 34
+ 0.31816 3 2 tcp 1040 ------- 1 0.0 2.0 16 34
- 0.31928 3 2 tcp 1040 ------- 1 0.0 2.0 14 25
r 0.32056 1 3 tcp 1040 ------- 2 1.0 4.0 6 36
+ 0.32056 3 4 tcp 1040 ------- 2 1.0 4.0 6 36
- 0.32064 0 3 tcp 1040 ------- 1 0.0 2.0 20 42
r 0.32096 3 2 tcp 1040 ------- 1 0.0 2.0 12 23
+ 0.32096 2 3 ack 40 ------- 1 2.0 0.0 12 43
- 0.32096 2 3 ack 40 ------- 1 2.0 0.0 12 43
r 0.32232 0 3 tcp 1040 ------- 1 0.0 2.0 17 38
+ 0.32232 3 2 tcp 1040 ------- 1 0.0 2.0 17 38
r 0.32296 2 3 ack 40 ------- 1 2.0 0.0 11 40
+ 0.32296 3 0 ack 40 ------- 1 2.0 0.0 11 40
- 0.32296 3 0 ack 40 ------- 1 2.0 0.0 11 40
- 0.32472 3 4 tcp 1040 ------- 2 1.0 4.0 5 35
r 0.3248 3 0 ack 40 ------- 1 2.0 0.0 10 37
+ 0.3248 0 3 tcp 1040 ------- 1 0.0 2.0 21 44
+ 0.3248 0 3 tcp 1040 ------- 1 0.0 2.0 22 45
- 0.3248 0 3 tcp 1040 ------- 1 0.0 2.0 21 44
r 0.3264 3 4 tcp 1040 ------- 2 1.0 4.0 3 30
+ 0.3264 4 3 ack 40 ------- 2 4.0 1.0 3 46
- 0.3264 4 3 ack 40 ------- 2 4.0 1.0 3 46
r 0.32648 0 3 tcp 1040 ------- 1 0.0 2.0 18 39
+ 0.32648 3 2 tcp 1040 ------- 1 0.0 2.0 18 39
- 0.3276 3 2 tcp 1040 ------- 1 0.0 2.0 15 33
- 0.32896 0 3 tcp 1040 ------- 1 0.0 2.0 22 45
r 0.32928 3 2 tcp 1040 ------- 1 0.0 2.0 13 24
+ 0.32928 2 3 ack 40 ------- 1 2.0 0.0 13 47
- 0.32928 2 3 ack 40 ------- 1 2.0 0.0 13 47
r 0.33064 0 3 tcp 1040 ------- 1 0.0 2.0 19 41
+ 0.33064 3 2 tcp 1040 ------- 1 0.0 2.0 19 41
r 0.33128 2 3 ack 40 ------- 1 2.0 0.0 12 43
+ 0.33128 3 0 ack 40 ------- 1 2.0 0.0 12 43
- 0.33128 3 0 ack 40 ------- 1 2.0 0.0 12 43
- 0.33304 3 4 tcp 1040 ------- 2 1.0 4.0 6 36
r 0.33312 3 0 ack 40 ------- 1 2.0 0.0 11 40
+ 0.33312 0 3 tcp 1040 ------- 1 0.0 2.0 23 48
+ 0.33312 0 3 tcp 1040 ------- 1 0.0 2.0 24 49
- 0.33312 0 3 tcp 1040 ------- 1 0.0 2.0 23 48
r 0.33472 3 4 tcp 1040 ------- 2 1.0 4.0 4 31
+ 0.33472 4 3 ack 40 ------- 2 4.0 1.0 4 50
- 0.33472 4 3 ack 40 ------- 2 4.0 1.0 4 50
r 0.3348 0 3 tcp 1040 ------- 1 0.0 2.0 20 42
+ 0.3348 3 2 tcp 1040 ------- 1 0.0 2.0 20 42
- 0.33592 3 2 tcp 1040 ------- 1 0.0 2.0 16 34
r 0.33672 4 3 ack 40 ------- 2 4.0 1.0 3 46
+ 0.33672 3 1 ack 40 ------- 2 4.0 1.0 3 46
- 0.33672 3 1 ack 40 ------- 2 4.0 1.0 3 46
- 0.33728 0 3 tcp 1040 ------- 1 0.0 2.0 24 49
r 0.3376 3 2 tcp 1040 ------- 1 0.0 2.0 14 25
+ 0.3376 2 3 ack 40 ------- 1 2.0 0.0 14 51
- 0.3376 2 3 ack 40 ------- 1 2.0 0.0 14 51
r 0.33896 0 3 tcp 1040 ------- 1 0.0 2.0 21 44
+ 0.33896 3 2 tcp 1040 ------- 1 0.0 2.0 21 44
r 0.3396 2 3 ack 40 ------- 1 2.0 0.0 13 47
+ 0.3396 3 0 ack 40 ------- 1 2.0 0.0 13 47
- 0.3396 3 0 ack 40 ------- 1 2.0 0.0 13 47
r 0.34144 3 0 ack 40 ------- 1 2.0 0.0 12 43
+ 0.34144 0 3 tcp 1040 ------- 1 0.0 2.0 25 52
+ 0.34144 0 3 tcp 1040 ------- 1 0.0 2.0 26 53
- 0.34144 0 3 tcp 1040 ------- 1 0.0 2.0 25 52
r 0.34304 3 4 tcp 1040 ------- 2 1.0 4.0 5 35
+ 0.34304 4 3 ack 40 ------- 2 4.0 1.0 5 54
- 0.34304 4 3 ack 40 ------- 2 4.0 1.0 5 54
r 0.34312 0 3 tcp 1040 ------- 1 0.0 2.0 22 45
+ 0.34312 3 2 tcp 1040 ------- 1 0.0 2.0 22 45
- 0.34424 3 2 tcp 1040 ------- 1 0.0 2.0 17 38
r 0.34504 4 3 ack 40 ------- 2 4.0 1.0 4 50
+ 0.34504 3 1 ack 40 ------- 2 4.0 1.0 4 50
- 0.34504 3 1 ack 40 ------- 2 4.0 1.0 4 50
- 0.3456 0 3 tcp 1040 ------- 1 0.0 2.0 26 53
r 0.34592 3 2 tcp 1040 ------- 1 0.0 2.0 15 33
+ 0.34592 2 3 ack 40 ------- 1 2.0 0.0 15 55
- 0.34592 2 3 ack 40 ------- 1 2.0 0.0 15 55
r 0.34688 3 1 ack 40 ------- 2 4.0 1.0 3 46
+ 0.34688 1 3 tcp 1040 ------- 2 1.0 4.0 7 56
- 0.34688 1 3 tcp 1040 ------- 2 1.0 4.0 7 56
+ 0.34688 1 3 tcp 1040 ------- 2 1.0 4.0 8 57
r 0.34728 0 3 tcp 1040 ------- 1 0.0 2.0 23 48
+ 0.34728 3 2 tcp 1040 ------- 1 0.0 2.0 23 48
r 0.34792 2 3 ack 40 ------- 1 2.0 0.0 14 51
+ 0.34792 3 0 ack 40 ------- 1 2.0 0.0 14 51
- 0.34792 3 0 ack 40 ------- 1 2.0 0.0 14 51
r 0.34976 3 0 ack 40 ------- 1 2.0 0.0 13 47
+ 0.34976 0 3 tcp 1040 ------- 1 0.0 2.0 27 58
+ 0.34976 0 3 tcp 1040 ------- 1 0.0 2.0 28 59
- 0.34976 0 3 tcp 1040 ------- 1 0.0 2.0 27 58
- 0.35104 1 3 tcp 1040 ------- 2 1.0 4.0 8 57
r 0.35136 3 4 tcp 1040 ------- 2 1.0 4.0 6 36
+ 0.35136 4 3 ack 40 ------- 2 4.0 1.0 6 60
- 0.35136 4 3 ack 40 ------- 2 4.0 1.0 6 60
r 0.35144 0 3 tcp 1040 ------- 1 0.0 2.0 24 49
+ 0.35144 3 2 tcp 1040 ------- 1 0.0 2.0 24 49
- 0.35256 3 2 tcp 1040 ------- 1 0.0 2.0 18 39
r 0.35336 4 3 ack 40 ------- 2 4.0 1.0 5 54
+ 0.35336 3 1 ack 40 ------- 2 4.0 1.0 5 54
- 0.35336 3 1 ack 40 ------- 2 4.0 1.0 5 54
- 0.35392 0 3 tcp 1040 ------- 1 0.0 2.0 28 59
r 0.35424 3 2 tcp 1040 ------- 1 0.0 2.0 16 34
+ 0.35424 2 3 ack 40 ------- 1 2.0 0.0 16 61
- 0.35424 2 3 ack 40 ------- 1 2.0 0.0 16 61
r 0.3552 3 1 ack 40 ------- 2 4.0 1.0 4 50
+ 0.3552 1 3 tcp 1040 ------- 2 1.0 4.0 9 62
+ 0.3552 1 3 tcp 1040 ------- 2 1.0 4.0 10 63
- 0.3552 1 3 tcp 1040 ------- 2 1.0 4.0 9 62
r 0.3556 0 3 tcp 1040 ------- 1 0.0 2.0 25 52
+ 0.3556 3 2 tcp 1040 ------- 1 0.0 2.0 25 52
r 0.35624 2 3 ack 40 ------- 1 2.0 0.0 15 55
+ 0.35624 3 0 ack 40 ------- 1 2.0 0.0 15 55
- 0.35624 3 0 ack 40 ------- 1 2.0 0.0 15 55
r 0.35808 3 0 ack 40 ------- 1 2.0 0.0 14 51
+ 0.35808 0 3 tcp 1040 ------- 1 0.0 2.0 29 64
+ 0.35808 0 3 tcp 1040 ------- 1 0.0 2.0 30 65
- 0.35808 0 3 tcp 1040 ------- 1 0.0 2.0 29 64
- 0.35936 1 3 tcp 1040 ------- 2 1.0 4.0 10 63
r 0.35976 0 3 tcp 1040 ------- 1 0.0 2.0 26 53
+ 0.35976 3 2 tcp 1040 ------- 1 0.0 2.0 26 53
- 0.36088 3 2 tcp 1040 ------- 1 0.0 2.0 19 41
r 0.36104 1 3 tcp 1040 ------- 2 1.0 4.0 7 56
+ 0.36104 3 4 tcp 1040 ------- 2 1.0 4.0 7 56
- 0.36104 3 4 tcp 1040 ------- 2 1.0 4.0 7 56
r 0.36168 4 3 ack 40 ------- 2 4.0 1.0 6 60
+ 0.36168 3 1 ack 40 ------- 2 4.0 1.0 6 60
- 0.36168 3 1 ack 40 ------- 2 4.0 1.0 6 60
- 0.36224 0 3 tcp 1040 ------- 1 0.0 2.0 30 65
r 0.36256 3 2 tcp 1040 ------- 1 0.0 2.0 17 38
+ 0.36256 2 3 ack 40 ------- 1 2.0 0.0 17 66
- 0.36256 2 3 ack 40 ------- 1 2.0 0.0 17 66
r 0.36352 3 1 ack 40 ------- 2 4.0 1.0 5 54
+ 0.36352 1 3 tcp 1040 ------- 2 1.0 4.0 11 67
+ 0.36352 1 3 tcp 1040 ------- 2 1.0 4.0 12 68
- 0.36352 1 3 tcp 1040 ------- 2 1.0 4.0 11 67
r 0.36392 0 3 tcp 1040 ------- 1 0.0 2.0 27 58
+ 0.36392 3 2 tcp 1040 ------- 1 0.0 2.0 27 58
r 0.36456 2 3 ack 40 ------- 1 2.0 0.0 16 61
+ 0.36456 3 0 ack 40 ------- 1 2.0 0.0 16 61
- 0.36456 3 0 ack 40 ------- 1 2.0 0.0 16 61
r 0.3652 1 3 tcp 1040 ------- 2 1.0 4.0 8 57
+ 0.3652 3 4 tcp 1040 ------- 2 1.0 4.0 8 57
r 0.3664 3 0 ack 40 ------- 1 2.0 0.0 15 55
+ 0.3664 0 3 tcp 1040 ------- 1 0.0 2.0 31 69
+ 0.3664 0 3 tcp 1040 ------- 1 0.0 2.0 32 70
- 0.3664 0 3 tcp 1040 ------- 1 0.0 2.0 31 69
- 0.36768 1 3 tcp 1040 ------- 2 1.0 4.0 12 68
r 0.36808 0 3 tcp 1040 ------- 1 0.0 2.0 28 59
+ 0.36808 3 2 tcp 1040 ------- 1 0.0 2.0 28 59
- 0.3692 3 2 tcp 1040 ------- 1 0.0 2.0 20 42
r 0.36936 1 3 tcp 1040 ------- 2 1.0 4.0 9 62
+ 0.36936 3 4 tcp 1040 ------- 2 1.0 4.0 9 62
- 0.36936 3 4 tcp 1040 ------- 2 1.0 4.0 8 57
- 0.37056 0 3 tcp 1040 ------- 1 0.0 2.0 32 70
r 0.37088 3 2 tcp 1040 ------- 1 0.0 2.0 18 39
+ 0.37088 2 3 ack 40 ------- 1 2.0 0.0 18 71
- 0.37088 2 3 ack 40 ------- 1 2.0 0.0 18 71
r 0.37184 3 1 ack 40 ------- 2 4.0 1.0 6 60
+ 0.37184 1 3 tcp 1040 ------- 2 1.0 4.0 13 72
+ 0.37184 1 3 tcp 1040 ------- 2 1.0 4.0 14 73
- 0.37184 1 3 tcp 1040 ------- 2 1.0 4.0 13 72
r 0.37224 0 3 tcp 1040 ------- 1 0.0 2.0 29 64
+ 0.37224 3 2 tcp 1040 ------- 1 0.0 2.0 29 64
r 0.37288 2 3 ack 40 ------- 1 2.0 0.0 17 66
+ 0.37288 3 0 ack 40 ------- 1 2.0 0.0 17 66
- 0.37288 3 0 ack 40 ------- 1 2.0 0.0 17 66
r 0.37352 1 3 tcp 1040 ------- 2 1.0 4.0 10 63
+ 0.37352 3 4 tcp 1040 ------- 2 1.0 4.0 10 63
r 0.37472 3 0 ack 40 ------- 1 2.0 0.0 16 61
+ 0.37472 0 3 tcp 1040 ------- 1 0.0 2.0 33 74
+ 0.37472 0 3 tcp 1040 ------- 1 0.0 2.0 34 75
- 0.37472 0 3 tcp 1040 ------- 1 0.0 2.0 33 74
- 0.376 1 3 tcp 1040 ------- 2 1.0 4.0 14 73
r 0.3764 0 3 tcp 1040 ------- 1 0.0 2.0 30 65
+ 0.3764 3 2 tcp 1040 ------- 1 0.0 2.0 30 65
d 0.3764 3 2 tcp 1040 ------- 1 0.0 2.0 30 65
- 0.37752 3 2 tcp 1040 ------- 1 0.0 2.0 21 44
r 0.37768 1 3 tcp 1040 ------- 2 1.0 4.0 11 67
+ 0.37768 3 4 tcp 1040 ------- 2 1.0 4.0 11 67
- 0.37768 3 4 tcp 1040 ------- 2 1.0 4.0 9 62
- 0.37888 0 3 tcp 1040 ------- 1 0.0 2.0 34 75
r 0.3792 3 2 tcp 1040 ------- 1 0.0 2.0 19 41
+ 0.3792 2 3 ack 40 ------- 1 2.0 0.0 19 76
- 0.3792 2 3 ack 40 ------- 1 2.0 0.0 19 76
r 0.37936 3 4 tcp 1040 ------- 2 1.0 4.0 7 56
+ 0.37936 4 3 ack 40 ------- 2 4.0 1.0 7 77
- 0.37936 4 3 ack 40 ------- 2 4.0 1.0 7 77
r 0.38056 0 3 tcp 1040 ------- 1 0.0 2.0 31 69
+ 0.38056 3 2 tcp 1040 ------- 1 0.0 2.0 31 69
r 0.3812 2 3 ack 40 ------- 1 2.0 0.0 18 71
+ 0.3812 3 0 ack 40 ------- 1 2.0 0.0 18 71
- 0.3812 3 0 ack 40 ------- 1 2.0 0.0 18 71
r 0.38184 1 3 tcp 1040 ------- 2 1.0 4.0 12 68
+ 0.38184 3 4 tcp 1040 ------- 2 1.0 4.0 12 68
r 0.38304 3 0 ack 40 ------- 1 2.0 0.0 17 66
+ 0.38304 0 3 tcp 1040 ------- 1 0.0 2.0 35 78
+ 0.38304 0 3 tcp 1040 ------- 1 0.0 2.0 36 79
- 0.38304 0 3 tcp 1040 ------- 1 0.0 2.0 35 78
r 0.38472 0 3 tcp 1040 ------- 1 0.0 2.0 32 70
+ 0.38472 3 2 tcp 1040 ------- 1 0.0 2.0 32 70
d 0.38472 3 2 tcp 1040 ------- 1 0.0 2.0 32 70
- 0.38584 3 2 tcp 1040 ------- 1 0.0 2.0 22 45
r 0.386 1 3 tcp 1040 ------- 2 1.0 4.0 13 72
+ 0.386 3 4 tcp 1040 ------- 2 1.0 4.0 13 72
- 0.386 3 4 tcp 1040 ------- 2 1.0 4.0 10 63
- 0.3872 0 3 tcp 1040 ------- 1 0.0 2.0 36 79
r 0.38752 3 2 tcp 1040 ------- 1 0.0 2.0 20 42
+ 0.38752 2 3 ack 40 ------- 1 2.0 0.0 20 80
- 0.38752 2 3 ack 40 ------- 1 2.0 0.0 20 80
r 0.38768 3 4 tcp 1040 ------- 2 1.0 4.0 8 57
+ 0.38768 4 3 ack 40 ------- 2 4.0 1.0 8 81
- 0.38768 4 3 ack 40 ------- 2 4.0 1.0 8 81
r 0.38888 0 3 tcp 1040 ------- 1 0.0 2.0 33 74
+ 0.38888 3 2 tcp 1040 ------- 1 0.0 2.0 33 74
r 0.38952 2 3 ack 40 ------- 1 2.0 0.0 19 76
+ 0.38952 3 0 ack 40 ------- 1 2.0 0.0 19 76
- 0.38952 3 0 ack 40 ------- 1 2.0 0.0 19 76
r 0.38968 4 3 ack 40 ------- 2 4.0 1.0 7 77
+ 0.38968 3 1 ack 40 ------- 2 4.0 1.0 7 77
- 0.38968 3 1 ack 40 ------- 2 4.0 1.0 7 77
r 0.39016 1 3 tcp 1040 ------- 2 1.0 4.0 14 73
+ 0.39016 3 4 tcp 1040 ------- 2 1.0 4.0 14 73
r 0.39136 3 0 ack 40 ------- 1 2.0 0.0 18 71
+ 0.39136 0 3 tcp 1040 ------- 1 0.0 2.0 37 82
+ 0.39136 0 3 tcp 1040 ------- 1 0.0 2.0 38 83
- 0.39136 0 3 tcp 1040 ------- 1 0.0 2.0 37 82
r 0.39304 0 3 tcp 1040 ------- 1 0.0 2.0 34 75
+ 0.39304 3 2 tcp 1040 ------- 1 0.0 2.0 34 75
d 0.39304 3 2 tcp 1040 ------- 1 0.0 2.0 34 75
- 0.39416 3 2 tcp 1040 ------- 1 0.0 2.0 23 48
- 0.39432 3 4 tcp 1040 ------- 2 1.0 4.0 11 67
- 0.39552 0 3 tcp 1040 ------- 1 0.0 2.0 38 83
r 0.39584 3 2 tcp 1040 ------- 1 0.0 2.0 21 44
+ 0.39584 2 3 ack 40 ------- 1 2.0 0.0 21 84
- 0.39584 2 3 ack 40 ------- 1 2.0 0.0 21 84
r 0.396 3 4 tcp 1040 ------- 2 1.0 4.0 9 62
+ 0.396 4 3 ack 40 ------- 2 4.0 1.0 9 85
- 0.396 4 3 ack 40 ------- 2 4.0 1.0 9 85
r 0.3972 0 3 tcp 1040 ------- 1 0.0 2.0 35 78
+ 0.3972 3 2 tcp 1040 ------- 1 0.0 2.0 35 78
r 0.39784 2 3 ack 40 ------- 1 2.0 0.0 20 80
+ 0.39784 3 0 ack 40 ------- 1 2.0 0.0 20 80
- 0.39784 3 0 ack 40 ------- 1 2.0 0.0 20 80
r 0.398 4 3 ack 40 ------- 2 4.0 1.0 8 81
+ 0.398 3 1 ack 40 ------- 2 4.0 1.0 8 81
- 0.398 3 1 ack 40 ------- 2 4.0 1.0 8 81
r 0.39968 3 0 ack 40 ------- 1 2.0 0.0 19 76
+ 0.39968 0 3 tcp 1040 ------- 1 0.0 2.0 39 86
- 0.39968 0 3 tcp 1040 ------- 1 0.0 2.0 39 86
r 0.39984 3 1 ack 40 ------- 2 4.0 1.0 7 77
+ 0.39984 1 3 tcp 1040 ------- 2 1.0 4.0 15 87
- 0.39984 1 3 tcp 1040 ------- 2 1.0 4.0 15 87
+ 0.39984 1 3 tcp 1040 ------- 2 1.0 4.0 16 88
r 0.40136 0 3 tcp 1040 ------- 1 0.0 2.0 36 79
+ 0.40136 3 2 tcp 1040 ------- 1 0.0 2.0 36 79
d 0.40136 3 2 tcp 1040 ------- 1 0.0 2.0 36 79
- 0.40248 3 2 tcp 1040 ------- 1 0.0 2.0 24 49
- 0.40264 3 4 tcp 1040 ------- 2 1.0 4.0 12 68
- 0.404 1 3 tcp 1040 ------- 2 1.0 4.0 16 88
r 0.40416 3 2 tcp 1040 ------- 1 0.0 2.0 22 45
+ 0.40416 2 3 ack 40 ------- 1 2.0 0.0 22 89
- 0.40416 2 3 ack 40 ------- 1 2.0 0.0 22 89
r 0.40432 3 4 tcp 1040 ------- 2 1.0 4.0 10 63
+ 0.40432 4 3 ack 40 ------- 2 4.0 1.0 10 90
- 0.40432 4 3 ack 40 ------- 2 4.0 1.0 10 90
r 0.40552 0 3 tcp 1040 ------- 1 0.0 2.0 37 82
+ 0.40552 3 2 tcp 1040 ------- 1 0.0 2.0 37 82
r 0.40616 2 3 ack 40 ------- 1 2.0 0.0 21 84
+ 0.40616 3 0 ack 40 ------- 1 2.0 0.0 21 84
- 0.40616 3 0 ack 40 ------- 1 2.0 0.0 21 84
r 0.40632 4 3 ack 40 ------- 2 4.0 1.0 9 85
+ 0.40632 3 1 ack 40 ------- 2 4.0 1.0 9 85
- 0.40632 3 1 ack 40 ------- 2 4.0 1.0 9 85
r 0.408 3 0 ack 40 ------- 1 2.0 0.0 20 80
+ 0.408 0 3 tcp 1040 ------- 1 0.0 2.0 40 91
- 0.408 0 3 tcp 1040 ------- 1 0.0 2.0 40 91
r 0.40816 3 1 ack 40 ------- 2 4.0 1.0 8 81
+ 0.40816 1 3 tcp 1040 ------- 2 1.0 4.0 17 92
+ 0.40816 1 3 tcp 1040 ------- 2 1.0 4.0 18 93
- 0.40816 1 3 tcp 1040 ------- 2 1.0 4.0 17 92
r 0.40968 0 3 tcp 1040 ------- 1 0.0 2.0 38 83
+ 0.40968 3 2 tcp 1040 ------- 1 0.0 2.0 38 83
d 0.40968 3 2 tcp 1040 ------- 1 0.0 2.0 38 83
- 0.4108 3 2 tcp 1040 ------- 1 0.0 2.0 25 52
- 0.41096 3 4 tcp 1040 ------- 2 1.0 4.0 13 72
- 0.41232 1 3 tcp 1040 ------- 2 1.0 4.0 18 93
r 0.41248 3 2 tcp 1040 ------- 1 0.0 2.0 23 48
+ 0.41248 2 3 ack 40 ------- 1 2.0 0.0 23 94
- 0.41248 2 3 ack 40 ------- 1 2.0 0.0 23 94
r 0.41264 3 4 tcp 1040 ------- 2 1.0 4.0 11 67
+ 0.41264 4 3 ack 40 ------- 2 4.0 1.0 11 95
- 0.41264 4 3 ack 40 ------- 2 4.0 1.0 11 95
r 0.41384 0 3 tcp 1040 ------- 1 0.0 2.0 39 86
+ 0.41384 3 2 tcp 1040 ------- 1 0.0 2.0 39 86
r 0.414 1 3 tcp 1040 ------- 2 1.0 4.0 15 87
+ 0.414 3 4 tcp 1040 ------- 2 1.0 4.0 15 87
r 0.41448 2 3 ack 40 ------- 1 2.0 0.0 22 89
+ 0.41448 3 0 ack 40 ------- 1 2.0 0.0 22 89
- 0.41448 3 0 ack 40 ------- 1 2.0 0.0 22 89
r 0.41464 4 3 ack 40 ------- 2 4.0 1.0 10 90
+ 0.41464 3 1 ack 40 ------- 2 4.0 1.0 10 90
- 0.41464 3 1 ack 40 ------- 2 4.0 1.0 10 90
r 0.41632 3 0 ack 40 ------- 1 2.0 0.0 21 84
+ 0.41632 0 3 tcp 1040 ------- 1 0.0 2.0 41 96
- 0.41632 0 3 tcp 1040 ------- 1 0.0 2.0 41 96
r 0.41648 3 1 ack 40 ------- 2 4.0 1.0 9 85
+ 0.41648 1 3 tcp 1040 ------- 2 1.0 4.0 19 97
+ 0.41648 1 3 tcp 1040 ------- 2 1.0 4.0 20 98
- 0.41648 1 3 tcp 1040 ------- 2 1.0 4.0 19 97
r 0.41816 1 3 tcp 1040 ------- 2 1.0 4.0 16 88
+ 0.41816 3 4 tcp 1040 ------- 2 1.0 4.0 16 88
- 0.41912 3 2 tcp 1040 ------- 1 0.0 2.0 26 53
- 0.41928 3 4 tcp 1040 ------- 2 1.0 4.0 14 73
- 0.42064 1 3 tcp 1040 ------- 2 1.0 4.0 20 98
r 0.4208 3 2 tcp 1040 ------- 1 0.0 2.0 24 49
+ 0.4208 2 3 ack 40 ------- 1 2.0 0.0 24 99
- 0.4208 2 3 ack 40 ------- 1 2.0 0.0 24 99
r 0.42096 3 4 tcp 1040 ------- 2 1.0 4.0 12 68
+ 0.42096 4 3 ack 40 ------- 2 4.0 1.0 12 100
- 0.42096 4 3 ack 40 ------- 2 4.0 1.0 12 100
r 0.42216 0 3 tcp 1040 ------- 1 0.0 2.0 40 91
+ 0.42216 3 2 tcp 1040 ------- 1 0.0 2.0 40 91
r 0.42232 1 3 tcp 1040 ------- 2 1.0 4.0 17 92
+ 0.42232 3 4 tcp 1040 ------- 2 1.0 4.0 17 92
r 0.4228 2 3 ack 40 ------- 1 2.0 0.0 23 94
+ 0.4228 3 0 ack 40 ------- 1 2.0 0.0 23 94
- 0.4228 3 0 ack 40 ------- 1 2.0 0.0 23 94
r 0.42296 4 3 ack 40 ------- 2 4.0 1.0 11 95
+ 0.42296 3 1 ack 40 ------- 2 4.0 1.0 11 95
- 0.42296 3 1 ack 40 ------- 2 4.0 1.0 11 95
r 0.42464 3 0 ack 40 ------- 1 2.0 0.0 22 89
+ 0.42464 0 3 tcp 1040 ------- 1 0.0 2.0 42 101
- 0.42464 0 3 tcp 1040 ------- 1 0.0 2.0 42 101
r 0.4248 3 1 ack 40 ------- 2 4.0 1.0 10 90
+ 0.4248 1 3 tcp 1040 ------- 2 1.0 4.0 21 102
+ 0.4248 1 3 tcp 1040 ------- 2 1.0 4.0 22 103
- 0.4248 1 3 tcp 1040 ------- 2 1.0 4.0 21 102
r 0.42648 1 3 tcp 1040 ------- 2 1.0 4.0 18 93
+ 0.42648 3 4 tcp 1040 ------- 2 1.0 4.0 18 93
- 0.42744 3 2 tcp 1040 ------- 1 0.0 2.0 27 58
- 0.4276 3 4 tcp 1040 ------- 2 1.0 4.0 15 87
- 0.42896 1 3 tcp 1040 ------- 2 1.0 4.0 22 103
r 0.42912 3 2 tcp 1040 ------- 1 0.0 2.0 25 52
+ 0.42912 2 3 ack 40 ------- 1 2.0 0.0 25 104
- 0.42912 2 3 ack 40 ------- 1 2.0 0.0 25 104
r 0.42928 3 4 tcp 1040 ------- 2 1.0 4.0 13 72
+ 0.42928 4 3 ack 40 ------- 2 4.0 1.0 13 105
- 0.42928 4 3 ack 40 ------- 2 4.0 1.0 13 105
r 0.43048 0 3 tcp 1040 ------- 1 0.0 2.0 41 96
+ 0.43048 3 2 tcp 1040 ------- 1 0.0 2.0 41 96
r 0.43064 1 3 tcp 1040 ------- 2 1.0 4.0 19 97
+ 0.43064 3 4 tcp 1040 ------- 2 1.0 4.0 19 97
r 0.43112 2 3 ack 40 ------- 1 2.0 0.0 24 99
+ 0.43112 3 0 ack 40 ------- 1 2.0 0.0 24 99
- 0.43112 3 0 ack 40 ------- 1 2.0 0.0 24 99
r 0.43128 4 3 ack 40 ------- 2 4.0 1.0 12 100
+ 0.43128 3 1 ack 40 ------- 2 4.0 1.0 12 100
- 0.43128 3 1 ack 40 ------- 2 4.0 1.0 12 100
r 0.43296 3 0 ack 40 ------- 1 2.0 0.0 23 94
+ 0.43296 0 3 tcp 1040 ------- 1 0.0 2.0 43 106
- 0.43296 0 3 tcp 1040 ------- 1 0.0 2.0 43 106
r 0.43312 3 1 ack 40 ------- 2 4.0 1.0 11 95
+ 0.43312 1 3 tcp 1040 ------- 2 1.0 4.0 23 107
+ 0.43312 1 3 tcp 1040 ------- 2 1.0 4.0 24 108
- 0.43312 1 3 tcp 1040 ------- 2 1.0 4.0 23 107
r 0.4348 1 3 tcp 1040 ------- 2 1.0 4.0 20 98
+ 0.4348 3 4 tcp 1040 ------- 2 1.0 4.0 20 98
- 0.43576 3 2 tcp 1040 ------- 1 0.0 2.0 28 59
- 0.43592 3 4 tcp 1040 ------- 2 1.0 4.0 16 88
- 0.43728 1 3 tcp 1040 ------- 2 1.0 4.0 24 108
r 0.43744 3 2 tcp 1040 ------- 1 0.0 2.0 26 53
+ 0.43744 2 3 ack 40 ------- 1 2.0 0.0 26 109
- 0.43744 2 3 ack 40 ------- 1 2.0 0.0 26 109
r 0.4376 3 4 tcp 1040 ------- 2 1.0 4.0 14 73
+ 0.4376 4 3 ack 40 ------- 2 4.0 1.0 14 110
- 0.4376 4 3 ack 40 ------- 2 4.0 1.0 14 110
r 0.4388 0 3 tcp 1040 ------- 1 0.0 2.0 42 101
+ 0.4388 3 2 tcp 1040 ------- 1 0.0 2.0 42 101
r 0.43896 1 3 tcp 1040 ------- 2 1.0 4.0 21 102
+ 0.43896 3 4 tcp 1040 ------- 2 1.0 4.0 21 102
r 0.43944 2 3 ack 40 ------- 1 2.0 0.0 25 104
+ 0.43944 3 0 ack 40 ------- 1 2.0 0.0 25 104
- 0.43944 3 0 ack 40 ------- 1 2.0 0.0 25 104
r 0.4396 4 3 ack 40 ------- 2 4.0 1.0 13 105
+ 0.4396 3 1 ack 40 ------- 2 4.0 1.0 13 105
- 0.4396 3 1 ack 40 ------- 2 4.0 1.0 13 105
r 0.44128 3 0 ack 40 ------- 1 2.0 0.0 24 99
+ 0.44128 0 3 tcp 1040 ------- 1 0.0 2.0 44 111
- 0.44128 0 3 tcp 1040 ------- 1 0.0 2.0 44 111
r 0.44144 3 1 ack 40 ------- 2 4.0 1.0 12 100
+ 0.44144 1 3 tcp 1040 ------- 2 1.0 4.0 25 112
+ 0.44144 1 3 tcp 1040 ------- 2 1.0 4.0 26 113
- 0.44144 1 3 tcp 1040 ------- 2 1.0 4.0 25 112
r 0.44312 1 3 tcp 1040 ------- 2 1.0 4.0 22 103
+ 0.44312 3 4 tcp 1040 ------- 2 1.0 4.0 22 103
- 0.44408 3 2 tcp 1040 ------- 1 0.0 2.0 29 64
- 0.44424 3 4 tcp 1040 ------- 2 1.0 4.0 17 92
- 0.4456 1 3 tcp 1040 ------- 2 1.0 4.0 26 113
r 0.44576 3 2 tcp 1040 ------- 1 0.0 2.0 27 58
+ 0.44576 2 3 ack 40 ------- 1 2.0 0.0 27 114
- 0.44576 2 3 ack 40 ------- 1 2.0 0.0 27 114
r 0.44592 3 4 tcp 1040 ------- 2 1.0 4.0 15 87
+ 0.44592 4 3 ack 40 ------- 2 4.0 1.0 15 115
- 0.44592 4 3 ack 40 ------- 2 4.0 1.0 15 115
r 0.44712 0 3 tcp 1040 ------- 1 0.0 2.0 43 106
+ 0.44712 3 2 tcp 1040 ------- 1 0.0 2.0 43 106
r 0.44728 1 3 tcp 1040 ------- 2 1.0 4.0 23 107
+ 0.44728 3 4 tcp 1040 ------- 2 1.0 4.0 23 107
r 0.44776 2 3 ack 40 ------- 1 2.0 0.0 26 109
+ 0.44776 3 0 ack 40 ------- 1 2.0 0.0 26 109
- 0.44776 3 0 ack 40 ------- 1 2.0 0.0 26 109
r 0.44792 4 3 ack 40 ------- 2 4.0 1.0 14 110
+ 0.44792 3 1 ack 40 ------- 2 4.0 1.0 14 110
- 0.44792 3 1 ack 40 ------- 2 4.0 1.0 14 110
r 0.4496 3 0 ack 40 ------- 1 2.0 0.0 25 104
+ 0.4496 0 3 tcp 1040 ------- 1 0.0 2.0 45 116
- 0.4496 0 3 tcp 1040 ------- 1 0.0 2.0 45 116
r 0.44976 3 1 ack 40 ------- 2 4.0 1.0 13 105
+ 0.44976 1 3 tcp 1040 ------- 2 1.0 4.0 27 117
+ 0.44976 1 3 tcp 1040 ------- 2 1.0 4.0 28 118
- 0.44976 1 3 tcp 1040 ------- 2 1.0 4.0 27 117
r 0.45144 1 3 tcp 1040 ------- 2 1.0 4.0 24 108
+ 0.45144 3 4 tcp 1040 ------- 2 1.0 4.0 24 108
- 0.4524 3 2 tcp 1040 ------- 1 0.0 2.0 31 69
- 0.45256 3 4 tcp 1040 ------- 2 1.0 4.0 18 93
- 0.45392 1 3 tcp 1040 ------- 2 1.0 4.0 28 118
r 0.45408 3 2 tcp 1040 ------- 1 0.0 2.0 28 59
+ 0.45408 2 3 ack 40 ------- 1 2.0 0.0 28 119
- 0.45408 2 3 ack 40 ------- 1 2.0 0.0 28 119
r 0.45424 3 4 tcp 1040 ------- 2 1.0 4.0 16 88
+ 0.45424 4 3 ack 40 ------- 2 4.0 1.0 16 120
- 0.45424 4 3 ack 40 ------- 2 4.0 1.0 16 120
r 0.45544 0 3 tcp 1040 ------- 1 0.0 2.0 44 111
+ 0.45544 3 2 tcp 1040 ------- 1 0.0 2.0 44 111
r 0.4556 1 3 tcp 1040 ------- 2 1.0 4.0 25 112
+ 0.4556 3 4 tcp 1040 ------- 2 1.0 4.0 25 112
r 0.45608 2 3 ack 40 ------- 1 2.0 0.0 27 114
+ 0.45608 3 0 ack 40 ------- 1 2.0 0.0 27 114
- 0.45608 3 0 ack 40 ------- 1 2.0 0.0 27 114
r 0.45624 4 3 ack 40 ------- 2 4.0 1.0 15 115
+ 0.45624 3 1 ack 40 ------- 2 4.0 1.0 15 115
- 0.45624 3 1 ack 40 ------- 2 4.0 1.0 15 115
r 0.45792 3 0 ack 40 ------- 1 2.0 0.0 26 109