+ 0.1 0 3 tcp 40 ------- 1 0.0 4.0 0 0
- 0.1 0 3 tcp 40 ------- 1 0.0 4.0 0 0
r 0.11016 0 3 tcp 40 ------- 1 0.0 4.0 0 0
+ 0.11016 3 4 tcp 40 ------- 1 0.0 4.0 0 0
- 0.11016 3 4 tcp 40 ------- 1 0.0 4.0 0 0
r 0.11524 3 4 tcp 40 ------- 1 0.0 4.0 0 0
+ 0.11524 4 3 ack 40 ------- 1 4.0 0.0 0 1
- 0.11524 4 3 ack 40 ------- 1 4.0 0.0 0 1
r 0.12032 4 3 ack 40 ------- 1 4.0 0.0 0 1
+ 0.12032 3 0 ack 40 ------- 1 4.0 0.0 0 1
- 0.12032 3 0 ack 40 ------- 1 4.0 0.0 0 1
r 0.13048 3 0 ack 40 ------- 1 4.0 0.0 0 1
+ 0.13048 0 3 tcp 1040 ------- 1 0.0 4.0 1 2
- 0.13048 0 3 tcp 1040 ------- 1 0.0 4.0 1 2
+ 0.13048 0 3 tcp 1040 ------- 1 0.0 4.0 2 3
- 0.13464 0 3 tcp 1040 ------- 1 0.0 4.0 2 3
r 0.14464 0 3 tcp 1040 ------- 1 0.0 4.0 1 2
+ 0.14464 3 4 tcp 1040 ------- 1 0.0 4.0 1 2
- 0.14464 3 4 tcp 1040 ------- 1 0.0 4.0 1 2
r 0.1488 0 3 tcp 1040 ------- 1 0.0 4.0 2 3
+ 0.1488 3 4 tcp 1040 ------- 1 0.0 4.0 2 3
- 0.1488 3 4 tcp 1040 ------- 1 0.0 4.0 2 3
+ 0.15 1 3 tcp 40 ------- 2 1.0 4.1 0 4
- 0.15 1 3 tcp 40 ------- 2 1.0 4.1 0 4
r 0.15172 3 4 tcp 1040 ------- 1 0.0 4.0 1 2
+ 0.15172 4 3 ack 40 ------- 1 4.0 0.0 1 5
- 0.15172 4 3 ack 40 ------- 1 4.0 0.0 1 5
r 0.15588 3 4 tcp 1040 ------- 1 0.0 4.0 2 3
+ 0.15588 4 3 ack 40 ------- 1 4.0 0.0 2 6
- 0.15588 4 3 ack 40 ------- 1 4.0 0.0 2 6
r 0.1568 4 3 ack 40 ------- 1 4.0 0.0 1 5
+ 0.1568 3 0 ack 40 ------- 1 4.0 0.0 1 5
- 0.1568 3 0 ack 40 ------- 1 4.0 0.0 1 5
r 0.16032 1 3 tcp 40 ------- 2 1.0 4.1 0 4
+ 0.16032 3 4 tcp 40 ------- 2 1.0 4.1 0 4
- 0.16032 3 4 tcp 40 ------- 2 1.0 4.1 0 4
r 0.16096 4 3 ack 40 ------- 1 4.0 0.0 2 6
+ 0.16096 3 0 ack 40 ------- 1 4.0 0.0 2 6
- 0.16096 3 0 ack 40 ------- 1 4.0 0.0 2 6
r 0.1654 3 4 tcp 40 ------- 2 1.0 4.1 0 4
+ 0.1654 4 3 ack 40 ------- 2 4.1 1.0 0 7
- 0.1654 4 3 ack 40 ------- 2 4.1 1.0 0 7
r 0.16696 3 0 ack 40 ------- 1 4.0 0.0 1 5
+ 0.16696 0 3 tcp 1040 ------- 1 0.0 4.0 3 8
- 0.16696 0 3 tcp 1040 ------- 1 0.0 4.0 3 8
+ 0.16696 0 3 tcp 1040 ------- 1 0.0 4.0 4 9
r 0.17048 4 3 ack 40 ------- 2 4.1 1.0 0 7
+ 0.17048 3 1 ack 40 ------- 2 4.1 1.0 0 7
- 0.17048 3 1 ack 40 ------- 2 4.1 1.0 0 7
r 0.17112 3 0 ack 40 ------- 1 4.0 0.0 2 6
+ 0.17112 0 3 tcp 1040 ------- 1 0.0 4.0 5 10
+ 0.17112 0 3 tcp 1040 ------- 1 0.0 4.0 6 11
- 0.17112 0 3 tcp 1040 ------- 1 0.0 4.0 4 9
- 0.17528 0 3 tcp 1040 ------- 1 0.0 4.0 5 10
- 0.17944 0 3 tcp 1040 ------- 1 0.0 4.0 6 11
r 0.1808 3 1 ack 40 ------- 2 4.1 1.0 0 7
+ 0.1808 1 3 tcp 1040 ------- 2 1.0 4.1 1 12
- 0.1808 1 3 tcp 1040 ------- 2 1.0 4.1 1 12
+ 0.1808 1 3 tcp 1040 ------- 2 1.0 4.1 2 13
r 0.18112 0 3 tcp 1040 ------- 1 0.0 4.0 3 8
+ 0.18112 3 4 tcp 1040 ------- 1 0.0 4.0 3 8
- 0.18112 3 4 tcp 1040 ------- 1 0.0 4.0 3 8
r 0.18528 0 3 tcp 1040 ------- 1 0.0 4.0 4 9
+ 0.18528 3 4 tcp 1040 ------- 1 0.0 4.0 4 9
- 0.18528 3 4 tcp 1040 ------- 1 0.0 4.0 4 9
r 0.1882 3 4 tcp 1040 ------- 1 0.0 4.0 3 8
+ 0.1882 4 3 ack 40 ------- 1 4.0 0.0 3 14
- 0.1882 4 3 ack 40 ------- 1 4.0 0.0 3 14
- 0.18912 1 3 tcp 1040 ------- 2 1.0 4.1 2 13
r 0.18944 0 3 tcp 1040 ------- 1 0.0 4.0 5 10
+ 0.18944 3 4 tcp 1040 ------- 1 0.0 4.0 5 10
- 0.18944 3 4 tcp 1040 ------- 1 0.0 4.0 5 10
r 0.19236 3 4 tcp 1040 ------- 1 0.0 4.0 4 9
+ 0.19236 4 3 ack 40 ------- 1 4.0 0.0 4 15
- 0.19236 4 3 ack 40 ------- 1 4.0 0.0 4 15
r 0.19328 4 3 ack 40 ------- 1 4.0 0.0 3 14
+ 0.19328 3 0 ack 40 ------- 1 4.0 0.0 3 14
- 0.19328 3 0 ack 40 ------- 1 4.0 0.0 3 14
r 0.1936 0 3 tcp 1040 ------- 1 0.0 4.0 6 11
+ 0.1936 3 4 tcp 1040 ------- 1 0.0 4.0 6 11
- 0.1936 3 4 tcp 1040 ------- 1 0.0 4.0 6 11
r 0.19652 3 4 tcp 1040 ------- 1 0.0 4.0 5 10
+ 0.19652 4 3 ack 40 ------- 1 4.0 0.0 5 16
- 0.19652 4 3 ack 40 ------- 1 4.0 0.0 5 16
r 0.19744 4 3 ack 40 ------- 1 4.0 0.0 4 15
+ 0.19744 3 0 ack 40 ------- 1 4.0 0.0 4 15
- 0.19744 3 0 ack 40 ------- 1 4.0 0.0 4 15
r 0.19912 1 3 tcp 1040 ------- 2 1.0 4.1 1 12
+ 0.19912 3 4 tcp 1040 ------- 2 1.0 4.1 1 12
- 0.19912 3 4 tcp 1040 ------- 2 1.0 4.1 1 12
+ 0.2 2 3 tcp 40 ------- 3 2.0 4.2 0 17
- 0.2 2 3 tcp 40 ------- 3 2.0 4.2 0 17
+ 0.2 0 3 cbr 500 ------- 4 0.1 4.3 0 18
- 0.2 0 3 cbr 500 ------- 4 0.1 4.3 0 18
r 0.20068 3 4 tcp 1040 ------- 1 0.0 4.0 6 11
+ 0.20068 4 3 ack 40 ------- 1 4.0 0.0 6 19
- 0.20068 4 3 ack 40 ------- 1 4.0 0.0 6 19
r 0.2016 4 3 ack 40 ------- 1 4.0 0.0 5 16
+ 0.2016 3 0 ack 40 ------- 1 4.0 0.0 5 16
- 0.2016 3 0 ack 40 ------- 1 4.0 0.0 5 16
r 0.20344 3 0 ack 40 ------- 1 4.0 0.0 3 14
+ 0.20344 0 3 tcp 1040 ------- 1 0.0 4.0 7 20
- 0.20344 0 3 tcp 1040 ------- 1 0.0 4.0 7 20
+ 0.20344 0 3 tcp 1040 ------- 1 0.0 4.0 8 21
+ 0.204 0 3 cbr 500 ------- 4 0.1 4.3 1 22
r 0.20576 4 3 ack 40 ------- 1 4.0 0.0 6 19
+ 0.20576 3 0 ack 40 ------- 1 4.0 0.0 6 19
- 0.20576 3 0 ack 40 ------- 1 4.0 0.0 6 19
r 0.2062 3 4 tcp 1040 ------- 2 1.0 4.1 1 12
+ 0.2062 4 3 ack 40 ------- 2 4.1 1.0 1 23
- 0.2062 4 3 ack 40 ------- 2 4.1 1.0 1 23
r 0.20744 1 3 tcp 1040 ------- 2 1.0 4.1 2 13
+ 0.20744 3 4 tcp 1040 ------- 2 1.0 4.1 2 13
- 0.20744 3 4 tcp 1040 ------- 2 1.0 4.1 2 13
r 0.2076 3 0 ack 40 ------- 1 4.0 0.0 4 15
+ 0.2076 0 3 tcp 1040 ------- 1 0.0 4.0 9 24
+ 0.2076 0 3 tcp 1040 ------- 1 0.0 4.0 10 25
- 0.2076 0 3 tcp 1040 ------- 1 0.0 4.0 8 21
+ 0.208 0 3 cbr 500 ------- 4 0.1 4.3 2 26
r 0.21032 2 3 tcp 40 ------- 3 2.0 4.2 0 17
+ 0.21032 3 4 tcp 40 ------- 3 2.0 4.2 0 17
- 0.21032 3 4 tcp 40 ------- 3 2.0 4.2 0 17
r 0.21128 4 3 ack 40 ------- 2 4.1 1.0 1 23
+ 0.21128 3 1 ack 40 ------- 2 4.1 1.0 1 23
- 0.21128 3 1 ack 40 ------- 2 4.1 1.0 1 23
r 0.21176 3 0 ack 40 ------- 1 4.0 0.0 5 16
+ 0.21176 0 3 tcp 1040 ------- 1 0.0 4.0 11 27
+ 0.21176 0 3 tcp 1040 ------- 1 0.0 4.0 12 28
- 0.21176 0 3 cbr 500 ------- 4 0.1 4.3 1 22
r 0.212 0 3 cbr 500 ------- 4 0.1 4.3 0 18
+ 0.212 3 4 cbr 500 ------- 4 0.1 4.3 0 18
- 0.212 3 4 cbr 500 ------- 4 0.1 4.3 0 18
+ 0.212 0 3 cbr 500 ------- 4 0.1 4.3 3 29
- 0.21376 0 3 tcp 1040 ------- 1 0.0 4.0 9 24
r 0.21452 3 4 tcp 1040 ------- 2 1.0 4.1 2 13
+ 0.21452 4 3 ack 40 ------- 2 4.1 1.0 2 30
- 0.21452 4 3 ack 40 ------- 2 4.1 1.0 2 30
r 0.2154 3 4 tcp 40 ------- 3 2.0 4.2 0 17
+ 0.2154 4 3 ack 40 ------- 3 4.2 2.0 0 31
- 0.2154 4 3 ack 40 ------- 3 4.2 2.0 0 31
r 0.21592 3 0 ack 40 ------- 1 4.0 0.0 6 19
+ 0.21592 0 3 tcp 1040 ------- 1 0.0 4.0 13 32
+ 0.21592 0 3 tcp 1040 ------- 1 0.0 4.0 14 33
+ 0.216 0 3 cbr 500 ------- 4 0.1 4.3 4 34
r 0.2176 0 3 tcp 1040 ------- 1 0.0 4.0 7 20
+ 0.2176 3 4 tcp 1040 ------- 1 0.0 4.0 7 20
- 0.2176 3 4 tcp 1040 ------- 1 0.0 4.0 7 20
- 0.21792 0 3 tcp 1040 ------- 1 0.0 4.0 10 25
r 0.218 3 4 cbr 500 ------- 4 0.1 4.3 0 18
r 0.2196 4 3 ack 40 ------- 2 4.1 1.0 2 30
+ 0.2196 3 1 ack 40 ------- 2 4.1 1.0 2 30
- 0.2196 3 1 ack 40 ------- 2 4.1 1.0 2 30
+ 0.22 0 3 cbr 500 ------- 4 0.1 4.3 5 35
r 0.22048 4 3 ack 40 ------- 3 4.2 2.0 0 31
+ 0.22048 3 2 ack 40 ------- 3 4.2 2.0 0 31
- 0.22048 3 2 ack 40 ------- 3 4.2 2.0 0 31
r 0.2216 3 1 ack 40 ------- 2 4.1 1.0 1 23
+ 0.2216 1 3 tcp 1040 ------- 2 1.0 4.1 3 36
- 0.2216 1 3 tcp 1040 ------- 2 1.0 4.1 3 36
+ 0.2216 1 3 tcp 1040 ------- 2 1.0 4.1 4 37
r 0.22176 0 3 tcp 1040 ------- 1 0.0 4.0 8 21
+ 0.22176 3 4 tcp 1040 ------- 1 0.0 4.0 8 21
- 0.22176 3 4 tcp 1040 ------- 1 0.0 4.0 8 21
- 0.22208 0 3 cbr 500 ------- 4 0.1 4.3 2 26
r 0.22376 0 3 cbr 500 ------- 4 0.1 4.3 1 22
+ 0.22376 3 4 cbr 500 ------- 4 0.1 4.3 1 22
- 0.22384 3 4 cbr 500 ------- 4 0.1 4.3 1 22
+ 0.224 0 3 cbr 500 ------- 4 0.1 4.3 6 38
- 0.22408 0 3 tcp 1040 ------- 1 0.0 4.0 11 27
r 0.22468 3 4 tcp 1040 ------- 1 0.0 4.0 7 20
+ 0.22468 4 3 ack 40 ------- 1 4.0 0.0 7 39
- 0.22468 4 3 ack 40 ------- 1 4.0 0.0 7 39
r 0.22792 0 3 tcp 1040 ------- 1 0.0 4.0 9 24
+ 0.22792 3 4 tcp 1040 ------- 1 0.0 4.0 9 24
- 0.22792 3 4 tcp 1040 ------- 1 0.0 4.0 9 24
+ 0.228 0 3 cbr 500 ------- 4 0.1 4.3 7 40
- 0.22824 0 3 tcp 1040 ------- 1 0.0 4.0 12 28
r 0.22884 3 4 tcp 1040 ------- 1 0.0 4.0 8 21
+ 0.22884 4 3 ack 40 ------- 1 4.0 0.0 8 41
- 0.22884 4 3 ack 40 ------- 1 4.0 0.0 8 41
r 0.22976 4 3 ack 40 ------- 1 4.0 0.0 7 39
+ 0.22976 3 0 ack 40 ------- 1 4.0 0.0 7 39
- 0.22976 3 0 ack 40 ------- 1 4.0 0.0 7 39
r 0.22984 3 4 cbr 500 ------- 4 0.1 4.3 1 22
r 0.22992 3 1 ack 40 ------- 2 4.1 1.0 2 30
+ 0.22992 1 3 tcp 1040 ------- 2 1.0 4.1 5 42
+ 0.22992 1 3 tcp 1040 ------- 2 1.0 4.1 6 43
- 0.22992 1 3 tcp 1040 ------- 2 1.0 4.1 4 37
r 0.2308 3 2 ack 40 ------- 3 4.2 2.0 0 31
+ 0.2308 2 3 tcp 1040 ------- 3 2.0 4.2 1 44
- 0.2308 2 3 tcp 1040 ------- 3 2.0 4.2 1 44
+ 0.2308 2 3 tcp 1040 ------- 3 2.0 4.2 2 45
+ 0.232 0 3 cbr 500 ------- 4 0.1 4.3 8 46
r 0.23208 0 3 tcp 1040 ------- 1 0.0 4.0 10 25
+ 0.23208 3 4 tcp 1040 ------- 1 0.0 4.0 10 25
- 0.23208 3 4 tcp 1040 ------- 1 0.0 4.0 10 25
- 0.2324 0 3 cbr 500 ------- 4 0.1 4.3 3 29
r 0.23392 4 3 ack 40 ------- 1 4.0 0.0 8 41
+ 0.23392 3 0 ack 40 ------- 1 4.0 0.0 8 41
- 0.23392 3 0 ack 40 ------- 1 4.0 0.0 8 41
r 0.23408 0 3 cbr 500 ------- 4 0.1 4.3 2 26
+ 0.23408 3 4 cbr 500 ------- 4 0.1 4.3 2 26
- 0.23416 3 4 cbr 500 ------- 4 0.1 4.3 2 26
- 0.2344 0 3 tcp 1040 ------- 1 0.0 4.0 13 32
r 0.235 3 4 tcp 1040 ------- 1 0.0 4.0 9 24
+ 0.235 4 3 ack 40 ------- 1 4.0 0.0 9 47
- 0.235 4 3 ack 40 ------- 1 4.0 0.0 9 47
+ 0.236 0 3 cbr 500 ------- 4 0.1 4.3 9 48
- 0.23824 1 3 tcp 1040 ------- 2 1.0 4.1 5 42
r 0.23824 0 3 tcp 1040 ------- 1 0.0 4.0 11 27
+ 0.23824 3 4 tcp 1040 ------- 1 0.0 4.0 11 27
- 0.23824 3 4 tcp 1040 ------- 1 0.0 4.0 11 27
- 0.23856 0 3 tcp 1040 ------- 1 0.0 4.0 14 33
- 0.23912 2 3 tcp 1040 ------- 3 2.0 4.2 2 45
r 0.23916 3 4 tcp 1040 ------- 1 0.0 4.0 10 25
+ 0.23916 4 3 ack 40 ------- 1 4.0 0.0 10 49
- 0.23916 4 3 ack 40 ------- 1 4.0 0.0 10 49
r 0.23992 1 3 tcp 1040 ------- 2 1.0 4.1 3 36
+ 0.23992 3 4 tcp 1040 ------- 2 1.0 4.1 3 36
r 0.23992 3 0 ack 40 ------- 1 4.0 0.0 7 39
+ 0.23992 0 3 tcp 1040 ------- 1 0.0 4.0 15 50
+ 0.23992 0 3 tcp 1040 ------- 1 0.0 4.0 16 51
+ 0.24 0 3 cbr 500 ------- 4 0.1 4.3 10 52
r 0.24008 4 3 ack 40 ------- 1 4.0 0.0 9 47
+ 0.24008 3 0 ack 40 ------- 1 4.0 0.0 9 47
- 0.24008 3 0 ack 40 ------- 1 4.0 0.0 9 47
r 0.24016 3 4 cbr 500 ------- 4 0.1 4.3 2 26
- 0.24032 3 4 tcp 1040 ------- 2 1.0 4.1 3 36
r 0.2424 0 3 tcp 1040 ------- 1 0.0 4.0 12 28
+ 0.2424 3 4 tcp 1040 ------- 1 0.0 4.0 12 28
- 0.2424 3 4 tcp 1040 ------- 1 0.0 4.0 12 28
- 0.24272 0 3 cbr 500 ------- 4 0.1 4.3 4 34
+ 0.244 0 3 cbr 500 ------- 4 0.1 4.3 11 53
r 0.24408 3 0 ack 40 ------- 1 4.0 0.0 8 41
+ 0.24408 0 3 tcp 1040 ------- 1 0.0 4.0 17 54
+ 0.24408 0 3 tcp 1040 ------- 1 0.0 4.0 18 55
r 0.24424 4 3 ack 40 ------- 1 4.0 0.0 10 49
+ 0.24424 3 0 ack 40 ------- 1 4.0 0.0 10 49
- 0.24424 3 0 ack 40 ------- 1 4.0 0.0 10 49
r 0.2444 0 3 cbr 500 ------- 4 0.1 4.3 3 29
+ 0.2444 3 4 cbr 500 ------- 4 0.1 4.3 3 29
- 0.24448 3 4 cbr 500 ------- 4 0.1 4.3 3 29
- 0.24472 0 3 cbr 500 ------- 4 0.1 4.3 5 35
r 0.24532 3 4 tcp 1040 ------- 1 0.0 4.0 11 27
+ 0.24532 4 3 ack 40 ------- 1 4.0 0.0 11 56
- 0.24532 4 3 ack 40 ------- 1 4.0 0.0 11 56
- 0.24656 1 3 tcp 1040 ------- 2 1.0 4.1 6 43
- 0.24672 0 3 cbr 500 ------- 4 0.1 4.3 6 38
r 0.2474 3 4 tcp 1040 ------- 2 1.0 4.1 3 36
+ 0.2474 4 3 ack 40 ------- 2 4.1 1.0 3 57
- 0.2474 4 3 ack 40 ------- 2 4.1 1.0 3 57
+ 0.248 0 3 cbr 500 ------- 4 0.1 4.3 12 58
r 0.24824 1 3 tcp 1040 ------- 2 1.0 4.1 4 37
+ 0.24824 3 4 tcp 1040 ------- 2 1.0 4.1 4 37
- 0.24824 3 4 tcp 1040 ------- 2 1.0 4.1 4 37
r 0.24856 0 3 tcp 1040 ------- 1 0.0 4.0 13 32
+ 0.24856 3 4 tcp 1040 ------- 1 0.0 4.0 13 32
- 0.24872 0 3 cbr 500 ------- 4 0.1 4.3 7 40
r 0.24912 2 3 tcp 1040 ------- 3 2.0 4.2 1 44
+ 0.24912 3 4 tcp 1040 ------- 3 2.0 4.2 1 44
r 0.24948 3 4 tcp 1040 ------- 1 0.0 4.0 12 28
+ 0.24948 4 3 ack 40 ------- 1 4.0 0.0 12 59
- 0.24948 4 3 ack 40 ------- 1 4.0 0.0 12 59
r 0.25024 3 0 ack 40 ------- 1 4.0 0.0 9 47
+ 0.25024 0 3 tcp 1040 ------- 1 0.0 4.0 19 60
+ 0.25024 0 3 tcp 1040 ------- 1 0.0 4.0 20 61
- 0.25032 3 4 tcp 1040 ------- 1 0.0 4.0 13 32
r 0.2504 4 3 ack 40 ------- 1 4.0 0.0 11 56
+ 0.2504 3 0 ack 40 ------- 1 4.0 0.0 11 56
- 0.2504 3 0 ack 40 ------- 1 4.0 0.0 11 56
r 0.25048 3 4 cbr 500 ------- 4 0.1 4.3 3 29
- 0.25072 0 3 cbr 500 ------- 4 0.1 4.3 8 46
+ 0.252 0 3 cbr 500 ------- 4 0.1 4.3 13 62
- 0.2524 3 4 tcp 1040 ------- 3 2.0 4.2 1 44
r 0.25248 4 3 ack 40 ------- 2 4.1 1.0 3 57
+ 0.25248 3 1 ack 40 ------- 2 4.1 1.0 3 57
- 0.25248 3 1 ack 40 ------- 2 4.1 1.0 3 57
r 0.25272 0 3 tcp 1040 ------- 1 0.0 4.0 14 33
+ 0.25272 3 4 tcp 1040 ------- 1 0.0 4.0 14 33
- 0.25272 0 3 cbr 500 ------- 4 0.1 4.3 9 48
r 0.2544 3 0 ack 40 ------- 1 4.0 0.0 10 49
+ 0.2544 0 3 tcp 1040 ------- 1 0.0 4.0 21 63
+ 0.2544 0 3 tcp 1040 ------- 1 0.0 4.0 22 64
- 0.25448 3 4 tcp 1040 ------- 1 0.0 4.0 14 33
r 0.25456 4 3 ack 40 ------- 1 4.0 0.0 12 59
+ 0.25456 3 0 ack 40 ------- 1 4.0 0.0 12 59
- 0.25456 3 0 ack 40 ------- 1 4.0 0.0 12 59
r 0.25472 0 3 cbr 500 ------- 4 0.1 4.3 4 34
+ 0.25472 3 4 cbr 500 ------- 4 0.1 4.3 4 34
- 0.25472 0 3 tcp 1040 ------- 1 0.0 4.0 15 50
r 0.25532 3 4 tcp 1040 ------- 2 1.0 4.1 4 37
+ 0.25532 4 3 ack 40 ------- 2 4.1 1.0 4 65
- 0.25532 4 3 ack 40 ------- 2 4.1 1.0 4 65
+ 0.256 0 3 cbr 500 ------- 4 0.1 4.3 14 66
r 0.25656 1 3 tcp 1040 ------- 2 1.0 4.1 5 42
+ 0.25656 3 4 tcp 1040 ------- 2 1.0 4.1 5 42
- 0.25656 3 4 cbr 500 ------- 4 0.1 4.3 4 34
r 0.25672 0 3 cbr 500 ------- 4 0.1 4.3 5 35
+ 0.25672 3 4 cbr 500 ------- 4 0.1 4.3 5 35
r 0.2574 3 4 tcp 1040 ------- 1 0.0 4.0 13 32
+ 0.2574 4 3 ack 40 ------- 1 4.0 0.0 13 67
- 0.2574 4 3 ack 40 ------- 1 4.0 0.0 13 67
r 0.25744 2 3 tcp 1040 ------- 3 2.0 4.2 2 45
+ 0.25744 3 4 tcp 1040 ------- 3 2.0 4.2 2 45
- 0.25756 3 4 tcp 1040 ------- 2 1.0 4.1 5 42
r 0.25872 0 3 cbr 500 ------- 4 0.1 4.3 6 38
+ 0.25872 3 4 cbr 500 ------- 4 0.1 4.3 6 38
- 0.25888 0 3 tcp 1040 ------- 1 0.0 4.0 16 51
r 0.25948 3 4 tcp 1040 ------- 3 2.0 4.2 1 44
+ 0.25948 4 3 ack 40 ------- 3 4.2 2.0 1 68
- 0.25948 4 3 ack 40 ------- 3 4.2 2.0 1 68
- 0.25964 3 4 cbr 500 ------- 4 0.1 4.3 5 35
+ 0.26 0 3 cbr 500 ------- 4 0.1 4.3 15 69
r 0.2604 4 3 ack 40 ------- 2 4.1 1.0 4 65
+ 0.2604 3 1 ack 40 ------- 2 4.1 1.0 4 65
- 0.2604 3 1 ack 40 ------- 2 4.1 1.0 4 65
r 0.26056 3 0 ack 40 ------- 1 4.0 0.0 11 56
+ 0.26056 0 3 tcp 1040 ------- 1 0.0 4.0 23 70
+ 0.26056 0 3 tcp 1040 ------- 1 0.0 4.0 24 71
- 0.26064 3 4 tcp 1040 ------- 3 2.0 4.2 2 45
r 0.26072 0 3 cbr 500 ------- 4 0.1 4.3 7 40
+ 0.26072 3 4 cbr 500 ------- 4 0.1 4.3 7 40
r 0.26156 3 4 tcp 1040 ------- 1 0.0 4.0 14 33
+ 0.26156 4 3 ack 40 ------- 1 4.0 0.0 14 72
- 0.26156 4 3 ack 40 ------- 1 4.0 0.0 14 72
r 0.26248 4 3 ack 40 ------- 1 4.0 0.0 13 67
+ 0.26248 3 0 ack 40 ------- 1 4.0 0.0 13 67
- 0.26248 3 0 ack 40 ------- 1 4.0 0.0 13 67
r 0.26256 3 4 cbr 500 ------- 4 0.1 4.3 4 34
r 0.26272 0 3 cbr 500 ------- 4 0.1 4.3 8 46
+ 0.26272 3 4 cbr 500 ------- 4 0.1 4.3 8 46
- 0.26272 3 4 cbr 500 ------- 4 0.1 4.3 6 38
r 0.2628 3 1 ack 40 ------- 2 4.1 1.0 3 57
+ 0.2628 1 3 tcp 1040 ------- 2 1.0 4.1 7 73
- 0.2628 1 3 tcp 1040 ------- 2 1.0 4.1 7 73
+ 0.2628 1 3 tcp 1040 ------- 2 1.0 4.1 8 74
- 0.26304 0 3 cbr 500 ------- 4 0.1 4.3 10 52
- 0.26372 3 4 cbr 500 ------- 4 0.1 4.3 7 40
+ 0.264 0 3 cbr 500 ------- 4 0.1 4.3 16 75
r 0.26456 4 3 ack 40 ------- 3 4.2 2.0 1 68
+ 0.26456 3 2 ack 40 ------- 3 4.2 2.0 1 68
- 0.26456 3 2 ack 40 ------- 3 4.2 2.0 1 68
r 0.26464 3 4 tcp 1040 ------- 2 1.0 4.1 5 42
+ 0.26464 4 3 ack 40 ------- 2 4.1 1.0 5 76
- 0.26464 4 3 ack 40 ------- 2 4.1 1.0 5 76
r 0.26472 0 3 cbr 500 ------- 4 0.1 4.3 9 48
+ 0.26472 3 4 cbr 500 ------- 4 0.1 4.3 9 48
r 0.26472 3 0 ack 40 ------- 1 4.0 0.0 12 59
+ 0.26472 0 3 tcp 1040 ------- 1 0.0 4.0 25 77
+ 0.26472 0 3 tcp 1040 ------- 1 0.0 4.0 26 78
- 0.26472 3 4 cbr 500 ------- 4 0.1 4.3 8 46
r 0.26488 1 3 tcp 1040 ------- 2 1.0 4.1 6 43
+ 0.26488 3 4 tcp 1040 ------- 2 1.0 4.1 6 43
- 0.26504 0 3 cbr 500 ------- 4 0.1 4.3 11 53
r 0.26564 3 4 cbr 500 ------- 4 0.1 4.3 5 35
- 0.26572 3 4 cbr 500 ------- 4 0.1 4.3 9 48
r 0.26664 4 3 ack 40 ------- 1 4.0 0.0 14 72
+ 0.26664 3 0 ack 40 ------- 1 4.0 0.0 14 72
- 0.26664 3 0 ack 40 ------- 1 4.0 0.0 14 72
- 0.26672 3 4 tcp 1040 ------- 2 1.0 4.1 6 43
- 0.26704 0 3 tcp 1040 ------- 1 0.0 4.0 17 54
r 0.26772 3 4 tcp 1040 ------- 3 2.0 4.2 2 45
+ 0.26772 4 3 ack 40 ------- 3 4.2 2.0 2 79
- 0.26772 4 3 ack 40 ------- 3 4.2 2.0 2 79
+ 0.268 0 3 cbr 500 ------- 4 0.1 4.3 17 80
r 0.26872 3 4 cbr 500 ------- 4 0.1 4.3 6 38
r 0.26888 0 3 tcp 1040 ------- 1 0.0 4.0 15 50
+ 0.26888 3 4 tcp 1040 ------- 1 0.0 4.0 15 50
- 0.26888 3 4 tcp 1040 ------- 1 0.0 4.0 15 50
r 0.26972 4 3 ack 40 ------- 2 4.1 1.0 5 76
+ 0.26972 3 1 ack 40 ------- 2 4.1 1.0 5 76
- 0.26972 3 1 ack 40 ------- 2 4.1 1.0 5 76
r 0.26972 3 4 cbr 500 ------- 4 0.1 4.3 7 40
r 0.27072 3 1 ack 40 ------- 2 4.1 1.0 4 65
+ 0.27072 1 3 tcp 1040 ------- 2 1.0 4.1 9 81
+ 0.27072 1 3 tcp 1040 ------- 2 1.0 4.1 10 82
r 0.27072 3 4 cbr 500 ------- 4 0.1 4.3 8 46
- 0.27112 1 3 tcp 1040 ------- 2 1.0 4.1 8 74
- 0.2712 0 3 tcp 1040 ------- 1 0.0 4.0 18 55
r 0.27172 3 4 cbr 500 ------- 4 0.1 4.3 9 48
+ 0.272 0 3 cbr 500 ------- 4 0.1 4.3 18 83
r 0.27264 3 0 ack 40 ------- 1 4.0 0.0 13 67
+ 0.27264 0 3 tcp 1040 ------- 1 0.0 4.0 27 84
+ 0.27264 0 3 tcp 1040 ------- 1 0.0 4.0 28 85
r 0.2728 4 3 ack 40 ------- 3 4.2 2.0 2 79
+ 0.2728 3 2 ack 40 ------- 3 4.2 2.0 2 79
- 0.2728 3 2 ack 40 ------- 3 4.2 2.0 2 79
r 0.27304 0 3 tcp 1040 ------- 1 0.0 4.0 16 51
+ 0.27304 3 4 tcp 1040 ------- 1 0.0 4.0 16 51
- 0.27304 3 4 tcp 1040 ------- 1 0.0 4.0 16 51
r 0.2738 3 4 tcp 1040 ------- 2 1.0 4.1 6 43
+ 0.2738 4 3 ack 40 ------- 2 4.1 1.0 6 86
- 0.2738 4 3 ack 40 ------- 2 4.1 1.0 6 86
r 0.27488 3 2 ack 40 ------- 3 4.2 2.0 1 68
+ 0.27488 2 3 tcp 1040 ------- 3 2.0 4.2 3 87
- 0.27488 2 3 tcp 1040 ------- 3 2.0 4.2 3 87
+ 0.27488 2 3 tcp 1040 ------- 3 2.0 4.2 4 88
r 0.27504 0 3 cbr 500 ------- 4 0.1 4.3 10 52
+ 0.27504 3 4 cbr 500 ------- 4 0.1 4.3 10 52
- 0.27512 3 4 cbr 500 ------- 4 0.1 4.3 10 52
- 0.27536 0 3 cbr 500 ------- 4 0.1 4.3 12 58
r 0.27596 3 4 tcp 1040 ------- 1 0.0 4.0 15 50
+ 0.27596 4 3 ack 40 ------- 1 4.0 0.0 15 89
- 0.27596 4 3 ack 40 ------- 1 4.0 0.0 15 89
+ 0.276 0 3 cbr 500 ------- 4 0.1 4.3 19 90
r 0.2768 3 0 ack 40 ------- 1 4.0 0.0 14 72
+ 0.2768 0 3 tcp 1040 ------- 1 0.0 4.0 29 91
+ 0.2768 0 3 tcp 1040 ------- 1 0.0 4.0 30 92
r 0.27704 0 3 cbr 500 ------- 4 0.1 4.3 11 53
+ 0.27704 3 4 cbr 500 ------- 4 0.1 4.3 11 53
- 0.27704 3 4 cbr 500 ------- 4 0.1 4.3 11 53
- 0.27736 0 3 tcp 1040 ------- 1 0.0 4.0 19 60
r 0.27888 4 3 ack 40 ------- 2 4.1 1.0 6 86
+ 0.27888 3 1 ack 40 ------- 2 4.1 1.0 6 86
- 0.27888 3 1 ack 40 ------- 2 4.1 1.0 6 86
- 0.27944 1 3 tcp 1040 ------- 2 1.0 4.1 9 81
+ 0.28 0 3 cbr 500 ------- 4 0.1 4.3 20 93
r 0.28004 3 1 ack 40 ------- 2 4.1 1.0 5 76
+ 0.28004 1 3 tcp 1040 ------- 2 1.0 4.1 11 94
+ 0.28004 1 3 tcp 1040 ------- 2 1.0 4.1 12 95
r 0.28012 3 4 tcp 1040 ------- 1 0.0 4.0 16 51
+ 0.28012 4 3 ack 40 ------- 1 4.0 0.0 16 96
- 0.28012 4 3 ack 40 ------- 1 4.0 0.0 16 96
r 0.28104 4 3 ack 40 ------- 1 4.0 0.0 15 89
+ 0.28104 3 0 ack 40 ------- 1 4.0 0.0 15 89
- 0.28104 3 0 ack 40 ------- 1 4.0 0.0 15 89
r 0.28112 1 3 tcp 1040 ------- 2 1.0 4.1 7 73
+ 0.28112 3 4 tcp 1040 ------- 2 1.0 4.1 7 73
- 0.28112 3 4 tcp 1040 ------- 2 1.0 4.1 7 73
r 0.28112 3 4 cbr 500 ------- 4 0.1 4.3 10 52
r 0.2812 0 3 tcp 1040 ------- 1 0.0 4.0 17 54
+ 0.2812 3 4 tcp 1040 ------- 1 0.0 4.0 17 54
- 0.28152 0 3 tcp 1040 ------- 1 0.0 4.0 20 61
r 0.28304 3 4 cbr 500 ------- 4 0.1 4.3 11 53
r 0.28312 3 2 ack 40 ------- 3 4.2 2.0 2 79
+ 0.28312 2 3 tcp 1040 ------- 3 2.0 4.2 5 97
+ 0.28312 2 3 tcp 1040 ------- 3 2.0 4.2 6 98
- 0.2832 2 3 tcp 1040 ------- 3 2.0 4.2 4 88
- 0.2832 3 4 tcp 1040 ------- 1 0.0 4.0 17 54
+ 0.284 0 3 cbr 500 ------- 4 0.1 4.3 21 99
r 0.2852 4 3 ack 40 ------- 1 4.0 0.0 16 96
+ 0.2852 3 0 ack 40 ------- 1 4.0 0.0 16 96
- 0.2852 3 0 ack 40 ------- 1 4.0 0.0 16 96
r 0.28536 0 3 tcp 1040 ------- 1 0.0 4.0 18 55
+ 0.28536 3 4 tcp 1040 ------- 1 0.0 4.0 18 55
- 0.28536 3 4 tcp 1040 ------- 1 0.0 4.0 18 55
- 0.28568 0 3 cbr 500 ------- 4 0.1 4.3 13 62
r 0.28736 0 3 cbr 500 ------- 4 0.1 4.3 12 58
+ 0.28736 3 4 cbr 500 ------- 4 0.1 4.3 12 58
- 0.28744 3 4 cbr 500 ------- 4 0.1 4.3 12 58
- 0.28768 0 3 tcp 1040 ------- 1 0.0 4.0 21 63
- 0.28776 1 3 tcp 1040 ------- 2 1.0 4.1 10 82
+ 0.288 0 3 cbr 500 ------- 4 0.1 4.3 22 100
r 0.2882 3 4 tcp 1040 ------- 2 1.0 4.1 7 73
+ 0.2882 4 3 ack 40 ------- 2 4.1 1.0 7 101
- 0.2882 4 3 ack 40 ------- 2 4.1 1.0 7 101
r 0.2892 3 1 ack 40 ------- 2 4.1 1.0 6 86
+ 0.2892 1 3 tcp 1040 ------- 2 1.0 4.1 13 102
+ 0.2892 1 3 tcp 1040 ------- 2 1.0 4.1 14 103
r 0.28944 1 3 tcp 1040 ------- 2 1.0 4.1 8 74
+ 0.28944 3 4 tcp 1040 ------- 2 1.0 4.1 8 74
- 0.28944 3 4 tcp 1040 ------- 2 1.0 4.1 8 74
r 0.29028 3 4 tcp 1040 ------- 1 0.0 4.0 17 54
+ 0.29028 4 3 ack 40 ------- 1 4.0 0.0 17 104
- 0.29028 4 3 ack 40 ------- 1 4.0 0.0 17 104
r 0.2912 3 0 ack 40 ------- 1 4.0 0.0 15 89
+ 0.2912 0 3 tcp 1040 ------- 1 0.0 4.0 31 105
+ 0.2912 0 3 tcp 1040 ------- 1 0.0 4.0 32 106
- 0.29152 2 3 tcp 1040 ------- 3 2.0 4.2 5 97
r 0.29152 0 3 tcp 1040 ------- 1 0.0 4.0 19 60
+ 0.29152 3 4 tcp 1040 ------- 1 0.0 4.0 19 60
- 0.29152 3 4 tcp 1040 ------- 1 0.0 4.0 19 60
- 0.29184 0 3 tcp 1040 ------- 1 0.0 4.0 22 64
+ 0.292 0 3 cbr 500 ------- 4 0.1 4.3 23 107
r 0.29244 3 4 tcp 1040 ------- 1 0.0 4.0 18 55
+ 0.29244 4 3 ack 40 ------- 1 4.0 0.0 18 108
- 0.29244 4 3 ack 40 ------- 1 4.0 0.0 18 108
r 0.2932 2 3 tcp 1040 ------- 3 2.0 4.2 3 87
+ 0.2932 3 4 tcp 1040 ------- 3 2.0 4.2 3 87
r 0.29328 4 3 ack 40 ------- 2 4.1 1.0 7 101
+ 0.29328 3 1 ack 40 ------- 2 4.1 1.0 7 101
- 0.29328 3 1 ack 40 ------- 2 4.1 1.0 7 101
r 0.29344 3 4 cbr 500 ------- 4 0.1 4.3 12 58
- 0.2936 3 4 tcp 1040 ------- 3 2.0 4.2 3 87
r 0.29536 3 0 ack 40 ------- 1 4.0 0.0 16 96
+ 0.29536 0 3 tcp 1040 ------- 1 0.0 4.0 33 109
+ 0.29536 0 3 tcp 1040 ------- 1 0.0 4.0 34 110
r 0.29536 4 3 ack 40 ------- 1 4.0 0.0 17 104
+ 0.29536 3 0 ack 40 ------- 1 4.0 0.0 17 104
- 0.29536 3 0 ack 40 ------- 1 4.0 0.0 17 104
r 0.29568 0 3 tcp 1040 ------- 1 0.0 4.0 20 61
+ 0.29568 3 4 tcp 1040 ------- 1 0.0 4.0 20 61
- 0.29568 3 4 tcp 1040 ------- 1 0.0 4.0 20 61
- 0.296 0 3 cbr 500 ------- 4 0.1 4.3 14 66
+ 0.296 0 3 cbr 500 ------- 4 0.1 4.3 24 111
- 0.29608 1 3 tcp 1040 ------- 2 1.0 4.1 11 94
r 0.29652 3 4 tcp 1040 ------- 2 1.0 4.1 8 74
+ 0.29652 4 3 ack 40 ------- 2 4.1 1.0 8 112
- 0.29652 4 3 ack 40 ------- 2 4.1 1.0 8 112
r 0.29752 4 3 ack 40 ------- 1 4.0 0.0 18 108
+ 0.29752 3 0 ack 40 ------- 1 4.0 0.0 18 108
- 0.29752 3 0 ack 40 ------- 1 4.0 0.0 18 108
r 0.29768 0 3 cbr 500 ------- 4 0.1 4.3 13 62
+ 0.29768 3 4 cbr 500 ------- 4 0.1 4.3 13 62
r 0.29776 1 3 tcp 1040 ------- 2 1.0 4.1 9 81
+ 0.29776 3 4 tcp 1040 ------- 2 1.0 4.1 9 81
- 0.29776 3 4 cbr 500 ------- 4 0.1 4.3 13 62
- 0.298 0 3 cbr 500 ------- 4 0.1 4.3 15 69
r 0.2986 3 4 tcp 1040 ------- 1 0.0 4.0 19 60
+ 0.2986 4 3 ack 40 ------- 1 4.0 0.0 19 113
- 0.2986 4 3 ack 40 ------- 1 4.0 0.0 19 113
- 0.29876 3 4 tcp 1040 ------- 2 1.0 4.1 9 81
- 0.29984 2 3 tcp 1040 ------- 3 2.0 4.2 6 98
- 0.3 0 3 tcp 1040 ------- 1 0.0 4.0 23 70
+ 0.3 0 3 cbr 500 ------- 4 0.1 4.3 25 114
r 0.30068 3 4 tcp 1040 ------- 3 2.0 4.2 3 87
+ 0.30068 4 3 ack 40 ------- 3 4.2 2.0 3 115
- 0.30068 4 3 ack 40 ------- 3 4.2 2.0 3 115
r 0.30152 2 3 tcp 1040 ------- 3 2.0 4.2 4 88
+ 0.30152 3 4 tcp 1040 ------- 3 2.0 4.2 4 88
- 0.30152 3 4 tcp 1040 ------- 3 2.0 4.2 4 88
r 0.3016 4 3 ack 40 ------- 2 4.1 1.0 8 112
+ 0.3016 3 1 ack 40 ------- 2 4.1 1.0 8 112
- 0.3016 3 1 ack 40 ------- 2 4.1 1.0 8 112
r 0.30184 0 3 tcp 1040 ------- 1 0.0 4.0 21 63
+ 0.30184 3 4 tcp 1040 ------- 1 0.0 4.0 21 63
r 0.30276 3 4 tcp 1040 ------- 1 0.0 4.0 20 61
+ 0.30276 4 3 ack 40 ------- 1 4.0 0.0 20 116
- 0.30276 4 3 ack 40 ------- 1 4.0 0.0 20 116
r 0.3036 3 1 ack 40 ------- 2 4.1 1.0 7 101
+ 0.3036 1 3 tcp 1040 ------- 2 1.0 4.1 15 117
+ 0.3036 1 3 tcp 1040 ------- 2 1.0 4.1 16 118
- 0.3036 3 4 tcp 1040 ------- 1 0.0 4.0 21 63
r 0.30368 4 3 ack 40 ------- 1 4.0 0.0 19 113
+ 0.30368 3 0 ack 40 ------- 1 4.0 0.0 19 113
- 0.30368 3 0 ack 40 ------- 1 4.0 0.0 19 113
r 0.30376 3 4 cbr 500 ------- 4 0.1 4.3 13 62
+ 0.304 0 3 cbr 500 ------- 4 0.1 4.3 26 119
- 0.30416 0 3 tcp 1040 ------- 1 0.0 4.0 24 71
- 0.3044 1 3 tcp 1040 ------- 2 1.0 4.1 12 95
r 0.30552 3 0 ack 40 ------- 1 4.0 0.0 17 104
+ 0.30552 0 3 tcp 1040 ------- 1 0.0 4.0 35 120
+ 0.30552 0 3 tcp 1040 ------- 1 0.0 4.0 36 121
r 0.30576 4 3 ack 40 ------- 3 4.2 2.0 3 115
+ 0.30576 3 2 ack 40 ------- 3 4.2 2.0 3 115
- 0.30576 3 2 ack 40 ------- 3 4.2 2.0 3 115
r 0.30584 3 4 tcp 1040 ------- 2 1.0 4.1 9 81
+ 0.30584 4 3 ack 40 ------- 2 4.1 1.0 9 122
- 0.30584 4 3 ack 40 ------- 2 4.1 1.0 9 122
r 0.306 0 3 tcp 1040 ------- 1 0.0 4.0 22 64
+ 0.306 3 4 tcp 1040 ------- 1 0.0 4.0 22 64
- 0.306 3 4 tcp 1040 ------- 1 0.0 4.0 22 64
r 0.30608 1 3 tcp 1040 ------- 2 1.0 4.1 10 82
+ 0.30608 3 4 tcp 1040 ------- 2 1.0 4.1 10 82
r 0.30768 3 0 ack 40 ------- 1 4.0 0.0 18 108
+ 0.30768 0 3 tcp 1040 ------- 1 0.0 4.0 37 123
+ 0.30768 0 3 tcp 1040 ------- 1 0.0 4.0 38 124
r 0.30784 4 3 ack 40 ------- 1 4.0 0.0 20 116
+ 0.30784 3 0 ack 40 ------- 1 4.0 0.0 20 116
- 0.30784 3 0 ack 40 ------- 1 4.0 0.0 20 116
r 0.308 0 3 cbr 500 ------- 4 0.1 4.3 14 66
+ 0.308 3 4 cbr 500 ------- 4 0.1 4.3 14 66
+ 0.308 0 3 cbr 500 ------- 4 0.1 4.3 27 125
- 0.30808 3 4 tcp 1040 ------- 2 1.0 4.1 10 82
- 0.30832 0 3 cbr 500 ------- 4 0.1 4.3 16 75
r 0.3086 3 4 tcp 1040 ------- 3 2.0 4.2 4 88
+ 0.3086 4 3 ack 40 ------- 3 4.2 2.0 4 126
- 0.3086 4 3 ack 40 ------- 3 4.2 2.0 4 126
r 0.30984 2 3 tcp 1040 ------- 3 2.0 4.2 5 97
+ 0.30984 3 4 tcp 1040 ------- 3 2.0 4.2 5 97
r 0.31 0 3 cbr 500 ------- 4 0.1 4.3 15 69
+ 0.31 3 4 cbr 500 ------- 4 0.1 4.3 15 69
- 0.31016 3 4 cbr 500 ------- 4 0.1 4.3 14 66
- 0.31032 0 3 tcp 1040 ------- 1 0.0 4.0 25 77
r 0.31068 3 4 tcp 1040 ------- 1 0.0 4.0 21 63
+ 0.31068 4 3 ack 40 ------- 1 4.0 0.0 21 127
- 0.31068 4 3 ack 40 ------- 1 4.0 0.0 21 127
r 0.31092 4 3 ack 40 ------- 2 4.1 1.0 9 122
+ 0.31092 3 1 ack 40 ------- 2 4.1 1.0 9 122
- 0.31092 3 1 ack 40 ------- 2 4.1 1.0 9 122
- 0.31116 3 4 tcp 1040 ------- 3 2.0 4.2 5 97
r 0.31192 3 1 ack 40 ------- 2 4.1 1.0 8 112
+ 0.31192 1 3 tcp 1040 ------- 2 1.0 4.1 17 128
+ 0.31192 1 3 tcp 1040 ------- 2 1.0 4.1 18 129
+ 0.312 0 3 cbr 500 ------- 4 0.1 4.3 28 130
- 0.31272 1 3 tcp 1040 ------- 2 1.0 4.1 13 102
r 0.31308 3 4 tcp 1040 ------- 1 0.0 4.0 22 64
+ 0.31308 4 3 ack 40 ------- 1 4.0 0.0 22 131
- 0.31308 4 3 ack 40 ------- 1 4.0 0.0 22 131
- 0.31324 3 4 cbr 500 ------- 4 0.1 4.3 15 69
r 0.31368 4 3 ack 40 ------- 3 4.2 2.0 4 126
+ 0.31368 3 2 ack 40 ------- 3 4.2 2.0 4 126
- 0.31368 3 2 ack 40 ------- 3 4.2 2.0 4 126
r 0.31384 3 0 ack 40 ------- 1 4.0 0.0 19 113
+ 0.31384 0 3 tcp 1040 ------- 1 0.0 4.0 39 132
r 0.31416 0 3 tcp 1040 ------- 1 0.0 4.0 23 70
+ 0.31416 3 4 tcp 1040 ------- 1 0.0 4.0 23 70
- 0.31424 3 4 tcp 1040 ------- 1 0.0 4.0 23 70
r 0.3144 1 3 tcp 1040 ------- 2 1.0 4.1 11 94
+ 0.3144 3 4 tcp 1040 ------- 2 1.0 4.1 11 94
- 0.31448 0 3 tcp 1040 ------- 1 0.0 4.0 26 78
r 0.31516 3 4 tcp 1040 ------- 2 1.0 4.1 10 82
+ 0.31516 4 3 ack 40 ------- 2 4.1 1.0 10 133
- 0.31516 4 3 ack 40 ------- 2 4.1 1.0 10 133
r 0.31576 4 3 ack 40 ------- 1 4.0 0.0 21 127
+ 0.31576 3 0 ack 40 ------- 1 4.0 0.0 21 127
- 0.31576 3 0 ack 40 ------- 1 4.0 0.0 21 127
+ 0.316 0 3 cbr 500 ------- 4 0.1 4.3 29 134
r 0.31608 3 2 ack 40 ------- 3 4.2 2.0 3 115
+ 0.31608 2 3 tcp 1040 ------- 3 2.0 4.2 7 135
- 0.31608 2 3 tcp 1040 ------- 3 2.0 4.2 7 135
+ 0.31608 2 3 tcp 1040 ------- 3 2.0 4.2 8 136
r 0.31616 3 4 cbr 500 ------- 4 0.1 4.3 14 66
- 0.31632 3 4 tcp 1040 ------- 2 1.0 4.1 11 94
r 0.318 3 0 ack 40 ------- 1 4.0 0.0 20 116
+ 0.318 0 3 tcp 1040 ------- 1 0.0 4.0 40 137
r 0.31816 2 3 tcp 1040 ------- 3 2.0 4.2 6 98
+ 0.31816 3 4 tcp 1040 ------- 3 2.0 4.2 6 98
r 0.31816 4 3 ack 40 ------- 1 4.0 0.0 22 131
+ 0.31816 3 0 ack 40 ------- 1 4.0 0.0 22 131
- 0.31816 3 0 ack 40 ------- 1 4.0 0.0 22 131
r 0.31824 3 4 tcp 1040 ------- 3 2.0 4.2 5 97
+ 0.31824 4 3 ack 40 ------- 3 4.2 2.0 5 138
- 0.31824 4 3 ack 40 ------- 3 4.2 2.0 5 138
r 0.31832 0 3 tcp 1040 ------- 1 0.0 4.0 24 71
+ 0.31832 3 4 tcp 1040 ------- 1 0.0 4.0 24 71
- 0.3184 3 4 tcp 1040 ------- 3 2.0 4.2 6 98
- 0.31864 0 3 cbr 500 ------- 4 0.1 4.3 17 80
r 0.31924 3 4 cbr 500 ------- 4 0.1 4.3 15 69
+ 0.32 0 3 cbr 500 ------- 4 0.1 4.3 30 139
r 0.32024 4 3 ack 40 ------- 2 4.1 1.0 10 133
+ 0.32024 3 1 ack 40 ------- 2 4.1 1.0 10 133
- 0.32024 3 1 ack 40 ------- 2 4.1 1.0 10 133
r 0.32032 0 3 cbr 500 ------- 4 0.1 4.3 16 75
+ 0.32032 3 4 cbr 500 ------- 4 0.1 4.3 16 75
- 0.32048 3 4 tcp 1040 ------- 1 0.0 4.0 24 71
- 0.32064 0 3 cbr 500 ------- 4 0.1 4.3 18 83
- 0.32104 1 3 tcp 1040 ------- 2 1.0 4.1 14 103
r 0.32124 3 1 ack 40 ------- 2 4.1 1.0 9 122
+ 0.32124 1 3 tcp 1040 ------- 2 1.0 4.1 19 140
+ 0.32124 1 3 tcp 1040 ------- 2 1.0 4.1 20 141
r 0.32132 3 4 tcp 1040 ------- 1 0.0 4.0 23 70
+ 0.32132 4 3 ack 40 ------- 1 4.0 0.0 23 142
- 0.32132 4 3 ack 40 ------- 1 4.0 0.0 23 142
- 0.32256 3 4 cbr 500 ------- 4 0.1 4.3 16 75
- 0.32264 0 3 tcp 1040 ------- 1 0.0 4.0 27 84
r 0.32272 1 3 tcp 1040 ------- 2 1.0 4.1 12 95
+ 0.32272 3 4 tcp 1040 ------- 2 1.0 4.1 12 95
r 0.32332 4 3 ack 40 ------- 3 4.2 2.0 5 138
+ 0.32332 3 2 ack 40 ------- 3 4.2 2.0 5 138
- 0.32332 3 2 ack 40 ------- 3 4.2 2.0 5 138
r 0.3234 3 4 tcp 1040 ------- 2 1.0 4.1 11 94
+ 0.3234 4 3 ack 40 ------- 2 4.1 1.0 11 143
- 0.3234 4 3 ack 40 ------- 2 4.1 1.0 11 143
- 0.32356 3 4 tcp 1040 ------- 2 1.0 4.1 12 95
r 0.324 3 2 ack 40 ------- 3 4.2 2.0 4 126
+ 0.324 2 3 tcp 1040 ------- 3 2.0 4.2 9 144
+ 0.324 2 3 tcp 1040 ------- 3 2.0 4.2 10 145
+ 0.324 0 3 cbr 500 ------- 4 0.1 4.3 31 146
- 0.3244 2 3 tcp 1040 ------- 3 2.0 4.2 8 136
r 0.32448 0 3 tcp 1040 ------- 1 0.0 4.0 25 77
+ 0.32448 3 4 tcp 1040 ------- 1 0.0 4.0 25 77
r 0.32548 3 4 tcp 1040 ------- 3 2.0 4.2 6 98
+ 0.32548 4 3 ack 40 ------- 3 4.2 2.0 6 147