V -t * -v 1.0a5 -a 0
A -t * -n 1 -p 0 -o 0x7fffffff -c 30 -a 1
A -t * -h 1 -m 1073741823 -s 0
c -t * -i 4 -n Black
c -t * -i 1 -n Blue
c -t * -i 2 -n Red
c -t * -i 3 -n Green
n -t * -a 4 -s 4 -S UP -v circle -c black -i black
n -t * -a 0 -s 0 -S UP -v circle -c black -i black
n -t * -a 1 -s 1 -S UP -v circle -c black -i black
n -t * -a 2 -s 2 -S UP -v circle -c black -i black
n -t * -a 3 -s 3 -S UP -v circle -c black -i black
l -t * -s 0 -d 3 -S UP -r 2000000 -D 0.01 -c black -o right-down
l -t * -s 1 -d 3 -S UP -r 1000000 -D 0.01 -c black -o right
l -t * -s 2 -d 3 -S UP -r 1000000 -D 0.01 -c black -o right-up
l -t * -s 3 -d 4 -S UP -r 4000000 -D 0.0050000000000000001 -c Red -o right
q -t * -s 4 -d 3 -a 0.5
q -t * -s 3 -d 4 -a 0.5
+ -t 0.1 -s 0 -d 3 -p tcp -e 40 -c 1 -i 0 -a 1 -x {0.0 4.0 0 ------- null}
- -t 0.1 -s 0 -d 3 -p tcp -e 40 -c 1 -i 0 -a 1 -x {0.0 4.0 0 ------- null}
h -t 0.1 -s 0 -d 3 -p tcp -e 40 -c 1 -i 0 -a 1 -x {0.0 4.0 -1 ------- null}
r -t 0.11016 -s 0 -d 3 -p tcp -e 40 -c 1 -i 0 -a 1 -x {0.0 4.0 0 ------- null}
+ -t 0.11016 -s 3 -d 4 -p tcp -e 40 -c 1 -i 0 -a 1 -x {0.0 4.0 0 ------- null}
- -t 0.11016 -s 3 -d 4 -p tcp -e 40 -c 1 -i 0 -a 1 -x {0.0 4.0 0 ------- null}
h -t 0.11016 -s 3 -d 4 -p tcp -e 40 -c 1 -i 0 -a 1 -x {0.0 4.0 -1 ------- null}
r -t 0.11524 -s 3 -d 4 -p tcp -e 40 -c 1 -i 0 -a 1 -x {0.0 4.0 0 ------- null}
+ -t 0.11524 -s 4 -d 3 -p ack -e 40 -c 1 -i 1 -a 1 -x {4.0 0.0 0 ------- null}
- -t 0.11524 -s 4 -d 3 -p ack -e 40 -c 1 -i 1 -a 1 -x {4.0 0.0 0 ------- null}
h -t 0.11524 -s 4 -d 3 -p ack -e 40 -c 1 -i 1 -a 1 -x {4.0 0.0 -1 ------- null}
r -t 0.12032 -s 4 -d 3 -p ack -e 40 -c 1 -i 1 -a 1 -x {4.0 0.0 0 ------- null}
+ -t 0.12032 -s 3 -d 0 -p ack -e 40 -c 1 -i 1 -a 1 -x {4.0 0.0 0 ------- null}
- -t 0.12032 -s 3 -d 0 -p ack -e 40 -c 1 -i 1 -a 1 -x {4.0 0.0 0 ------- null}
h -t 0.12032 -s 3 -d 0 -p ack -e 40 -c 1 -i 1 -a 1 -x {4.0 0.0 -1 ------- null}
r -t 0.13048 -s 3 -d 0 -p ack -e 40 -c 1 -i 1 -a 1 -x {4.0 0.0 0 ------- null}
+ -t 0.13048 -s 0 -d 3 -p tcp -e 1040 -c 1 -i 2 -a 1 -x {0.0 4.0 1 ------- null}
- -t 0.13048 -s 0 -d 3 -p tcp -e 1040 -c 1 -i 2 -a 1 -x {0.0 4.0 1 ------- null}
h -t 0.13048 -s 0 -d 3 -p tcp -e 1040 -c 1 -i 2 -a 1 -x {0.0 4.0 -1 ------- null}
+ -t 0.13048 -s 0 -d 3 -p tcp -e 1040 -c 1 -i 3 -a 1 -x {0.0 4.0 2 ------- null}
- -t 0.13464 -s 0 -d 3 -p tcp -e 1040 -c 1 -i 3 -a 1 -x {0.0 4.0 2 ------- null}
h -t 0.13464 -s 0 -d 3 -p tcp -e 1040 -c 1 -i 3 -a 1 -x {0.0 4.0 -1 ------- null}
r -t 0.14464 -s 0 -d 3 -p tcp -e 1040 -c 1 -i 2 -a 1 -x {0.0 4.0 1 ------- null}
+ -t 0.14464 -s 3 -d 4 -p tcp -e 1040 -c 1 -i 2 -a 1 -x {0.0 4.0 1 ------- null}
- -t 0.14464 -s 3 -d 4 -p tcp -e 1040 -c 1 -i 2 -a 1 -x {0.0 4.0 1 ------- null}
h -t 0.14464 -s 3 -d 4 -p tcp -e 1040 -c 1 -i 2 -a 1 -x {0.0 4.0 -1 ------- null}
r -t 0.1488 -s 0 -d 3 -p tcp -e 1040 -c 1 -i 3 -a 1 -x {0.0 4.0 2 ------- null}
+ -t 0.1488 -s 3 -d 4 -p tcp -e 1040 -c 1 -i 3 -a 1 -x {0.0 4.0 2 ------- null}
- -t 0.1488 -s 3 -d 4 -p tcp -e 1040 -c 1 -i 3 -a 1 -x {0.0 4.0 2 ------- null}
h -t 0.1488 -s 3 -d 4 -p tcp -e 1040 -c 1 -i 3 -a 1 -x {0.0 4.0 -1 ------- null}
+ -t 0.15 -s 1 -d 3 -p tcp -e 40 -c 2 -i 4 -a 2 -x {1.0 4.1 0 ------- null}
- -t 0.15 -s 1 -d 3 -p tcp -e 40 -c 2 -i 4 -a 2 -x {1.0 4.1 0 ------- null}
h -t 0.15 -s 1 -d 3 -p tcp -e 40 -c 2 -i 4 -a 2 -x {1.0 4.1 -1 ------- null}
r -t 0.15172 -s 3 -d 4 -p tcp -e 1040 -c 1 -i 2 -a 1 -x {0.0 4.0 1 ------- null}
+ -t 0.15172 -s 4 -d 3 -p ack -e 40 -c 1 -i 5 -a 1 -x {4.0 0.0 1 ------- null}
- -t 0.15172 -s 4 -d 3 -p ack -e 40 -c 1 -i 5 -a 1 -x {4.0 0.0 1 ------- null}
h -t 0.15172 -s 4 -d 3 -p ack -e 40 -c 1 -i 5 -a 1 -x {4.0 0.0 -1 ------- null}
r -t 0.15588 -s 3 -d 4 -p tcp -e 1040 -c 1 -i 3 -a 1 -x {0.0 4.0 2 ------- null}
+ -t 0.15588 -s 4 -d 3 -p ack -e 40 -c 1 -i 6 -a 1 -x {4.0 0.0 2 ------- null}
- -t 0.15588 -s 4 -d 3 -p ack -e 40 -c 1 -i 6 -a 1 -x {4.0 0.0 2 ------- null}
h -t 0.15588 -s 4 -d 3 -p ack -e 40 -c 1 -i 6 -a 1 -x {4.0 0.0 -1 ------- null}
r -t 0.1568 -s 4 -d 3 -p ack -e 40 -c 1 -i 5 -a 1 -x {4.0 0.0 1 ------- null}
+ -t 0.1568 -s 3 -d 0 -p ack -e 40 -c 1 -i 5 -a 1 -x {4.0 0.0 1 ------- null}
- -t 0.1568 -s 3 -d 0 -p ack -e 40 -c 1 -i 5 -a 1 -x {4.0 0.0 1 ------- null}
h -t 0.1568 -s 3 -d 0 -p ack -e 40 -c 1 -i 5 -a 1 -x {4.0 0.0 -1 ------- null}
r -t 0.16032 -s 1 -d 3 -p tcp -e 40 -c 2 -i 4 -a 2 -x {1.0 4.1 0 ------- null}
+ -t 0.16032 -s 3 -d 4 -p tcp -e 40 -c 2 -i 4 -a 2 -x {1.0 4.1 0 ------- null}
- -t 0.16032 -s 3 -d 4 -p tcp -e 40 -c 2 -i 4 -a 2 -x {1.0 4.1 0 ------- null}
h -t 0.16032 -s 3 -d 4 -p tcp -e 40 -c 2 -i 4 -a 2 -x {1.0 4.1 -1 ------- null}
r -t 0.16096 -s 4 -d 3 -p ack -e 40 -c 1 -i 6 -a 1 -x {4.0 0.0 2 ------- null}
+ -t 0.16096 -s 3 -d 0 -p ack -e 40 -c 1 -i 6 -a 1 -x {4.0 0.0 2 ------- null}
- -t 0.16096 -s 3 -d 0 -p ack -e 40 -c 1 -i 6 -a 1 -x {4.0 0.0 2 ------- null}
h -t 0.16096 -s 3 -d 0 -p ack -e 40 -c 1 -i 6 -a 1 -x {4.0 0.0 -1 ------- null}
r -t 0.1654 -s 3 -d 4 -p tcp -e 40 -c 2 -i 4 -a 2 -x {1.0 4.1 0 ------- null}
+ -t 0.1654 -s 4 -d 3 -p ack -e 40 -c 2 -i 7 -a 2 -x {4.1 1.0 0 ------- null}
- -t 0.1654 -s 4 -d 3 -p ack -e 40 -c 2 -i 7 -a 2 -x {4.1 1.0 0 ------- null}
h -t 0.1654 -s 4 -d 3 -p ack -e 40 -c 2 -i 7 -a 2 -x {4.1 1.0 -1 ------- null}
r -t 0.16696 -s 3 -d 0 -p ack -e 40 -c 1 -i 5 -a 1 -x {4.0 0.0 1 ------- null}
+ -t 0.16696 -s 0 -d 3 -p tcp -e 1040 -c 1 -i 8 -a 1 -x {0.0 4.0 3 ------- null}
- -t 0.16696 -s 0 -d 3 -p tcp -e 1040 -c 1 -i 8 -a 1 -x {0.0 4.0 3 ------- null}
h -t 0.16696 -s 0 -d 3 -p tcp -e 1040 -c 1 -i 8 -a 1 -x {0.0 4.0 -1 ------- null}
+ -t 0.16696 -s 0 -d 3 -p tcp -e 1040 -c 1 -i 9 -a 1 -x {0.0 4.0 4 ------- null}
r -t 0.17048 -s 4 -d 3 -p ack -e 40 -c 2 -i 7 -a 2 -x {4.1 1.0 0 ------- null}
+ -t 0.17048 -s 3 -d 1 -p ack -e 40 -c 2 -i 7 -a 2 -x {4.1 1.0 0 ------- null}
- -t 0.17048 -s 3 -d 1 -p ack -e 40 -c 2 -i 7 -a 2 -x {4.1 1.0 0 ------- null}
h -t 0.17048 -s 3 -d 1 -p ack -e 40 -c 2 -i 7 -a 2 -x {4.1 1.0 -1 ------- null}
r -t 0.17112 -s 3 -d 0 -p ack -e 40 -c 1 -i 6 -a 1 -x {4.0 0.0 2 ------- null}
+ -t 0.17112 -s 0 -d 3 -p tcp -e 1040 -c 1 -i 10 -a 1 -x {0.0 4.0 5 ------- null}
+ -t 0.17112 -s 0 -d 3 -p tcp -e 1040 -c 1 -i 11 -a 1 -x {0.0 4.0 6 ------- null}
- -t 0.17112 -s 0 -d 3 -p tcp -e 1040 -c 1 -i 9 -a 1 -x {0.0 4.0 4 ------- null}
h -t 0.17112 -s 0 -d 3 -p tcp -e 1040 -c 1 -i 9 -a 1 -x {0.0 4.0 -1 ------- null}
- -t 0.17528 -s 0 -d 3 -p tcp -e 1040 -c 1 -i 10 -a 1 -x {0.0 4.0 5 ------- null}
h -t 0.17528 -s 0 -d 3 -p tcp -e 1040 -c 1 -i 10 -a 1 -x {0.0 4.0 -1 ------- null}
- -t 0.17944 -s 0 -d 3 -p tcp -e 1040 -c 1 -i 11 -a 1 -x {0.0 4.0 6 ------- null}
h -t 0.17944 -s 0 -d 3 -p tcp -e 1040 -c 1 -i 11 -a 1 -x {0.0 4.0 -1 ------- null}
r -t 0.1808 -s 3 -d 1 -p ack -e 40 -c 2 -i 7 -a 2 -x {4.1 1.0 0 ------- null}
+ -t 0.1808 -s 1 -d 3 -p tcp -e 1040 -c 2 -i 12 -a 2 -x {1.0 4.1 1 ------- null}
- -t 0.1808 -s 1 -d 3 -p tcp -e 1040 -c 2 -i 12 -a 2 -x {1.0 4.1 1 ------- null}
h -t 0.1808 -s 1 -d 3 -p tcp -e 1040 -c 2 -i 12 -a 2 -x {1.0 4.1 -1 ------- null}
+ -t 0.1808 -s 1 -d 3 -p tcp -e 1040 -c 2 -i 13 -a 2 -x {1.0 4.1 2 ------- null}
r -t 0.18112 -s 0 -d 3 -p tcp -e 1040 -c 1 -i 8 -a 1 -x {0.0 4.0 3 ------- null}
+ -t 0.18112 -s 3 -d 4 -p tcp -e 1040 -c 1 -i 8 -a 1 -x {0.0 4.0 3 ------- null}
- -t 0.18112 -s 3 -d 4 -p tcp -e 1040 -c 1 -i 8 -a 1 -x {0.0 4.0 3 ------- null}
h -t 0.18112 -s 3 -d 4 -p tcp -e 1040 -c 1 -i 8 -a 1 -x {0.0 4.0 -1 ------- null}
r -t 0.18528 -s 0 -d 3 -p tcp -e 1040 -c 1 -i 9 -a 1 -x {0.0 4.0 4 ------- null}
+ -t 0.18528 -s 3 -d 4 -p tcp -e 1040 -c 1 -i 9 -a 1 -x {0.0 4.0 4 ------- null}
- -t 0.18528 -s 3 -d 4 -p tcp -e 1040 -c 1 -i 9 -a 1 -x {0.0 4.0 4 ------- null}
h -t 0.18528 -s 3 -d 4 -p tcp -e 1040 -c 1 -i 9 -a 1 -x {0.0 4.0 -1 ------- null}
r -t 0.1882 -s 3 -d 4 -p tcp -e 1040 -c 1 -i 8 -a 1 -x {0.0 4.0 3 ------- null}
+ -t 0.1882 -s 4 -d 3 -p ack -e 40 -c 1 -i 14 -a 1 -x {4.0 0.0 3 ------- null}
- -t 0.1882 -s 4 -d 3 -p ack -e 40 -c 1 -i 14 -a 1 -x {4.0 0.0 3 ------- null}
h -t 0.1882 -s 4 -d 3 -p ack -e 40 -c 1 -i 14 -a 1 -x {4.0 0.0 -1 ------- null}
- -t 0.18912 -s 1 -d 3 -p tcp -e 1040 -c 2 -i 13 -a 2 -x {1.0 4.1 2 ------- null}
h -t 0.18912 -s 1 -d 3 -p tcp -e 1040 -c 2 -i 13 -a 2 -x {1.0 4.1 -1 ------- null}
r -t 0.18944 -s 0 -d 3 -p tcp -e 1040 -c 1 -i 10 -a 1 -x {0.0 4.0 5 ------- null}
+ -t 0.18944 -s 3 -d 4 -p tcp -e 1040 -c 1 -i 10 -a 1 -x {0.0 4.0 5 ------- null}
- -t 0.18944 -s 3 -d 4 -p tcp -e 1040 -c 1 -i 10 -a 1 -x {0.0 4.0 5 ------- null}
h -t 0.18944 -s 3 -d 4 -p tcp -e 1040 -c 1 -i 10 -a 1 -x {0.0 4.0 -1 ------- null}
r -t 0.19236 -s 3 -d 4 -p tcp -e 1040 -c 1 -i 9 -a 1 -x {0.0 4.0 4 ------- null}
+ -t 0.19236 -s 4 -d 3 -p ack -e 40 -c 1 -i 15 -a 1 -x {4.0 0.0 4 ------- null}
- -t 0.19236 -s 4 -d 3 -p ack -e 40 -c 1 -i 15 -a 1 -x {4.0 0.0 4 ------- null}
h -t 0.19236 -s 4 -d 3 -p ack -e 40 -c 1 -i 15 -a 1 -x {4.0 0.0 -1 ------- null}
r -t 0.19328 -s 4 -d 3 -p ack -e 40 -c 1 -i 14 -a 1 -x {4.0 0.0 3 ------- null}
+ -t 0.19328 -s 3 -d 0 -p ack -e 40 -c 1 -i 14 -a 1 -x {4.0 0.0 3 ------- null}
- -t 0.19328 -s 3 -d 0 -p ack -e 40 -c 1 -i 14 -a 1 -x {4.0 0.0 3 ------- null}
h -t 0.19328 -s 3 -d 0 -p ack -e 40 -c 1 -i 14 -a 1 -x {4.0 0.0 -1 ------- null}
r -t 0.1936 -s 0 -d 3 -p tcp -e 1040 -c 1 -i 11 -a 1 -x {0.0 4.0 6 ------- null}
+ -t 0.1936 -s 3 -d 4 -p tcp -e 1040 -c 1 -i 11 -a 1 -x {0.0 4.0 6 ------- null}
- -t 0.1936 -s 3 -d 4 -p tcp -e 1040 -c 1 -i 11 -a 1 -x {0.0 4.0 6 ------- null}
h -t 0.1936 -s 3 -d 4 -p tcp -e 1040 -c 1 -i 11 -a 1 -x {0.0 4.0 -1 ------- null}
r -t 0.19652 -s 3 -d 4 -p tcp -e 1040 -c 1 -i 10 -a 1 -x {0.0 4.0 5 ------- null}
+ -t 0.19652 -s 4 -d 3 -p ack -e 40 -c 1 -i 16 -a 1 -x {4.0 0.0 5 ------- null}
- -t 0.19652 -s 4 -d 3 -p ack -e 40 -c 1 -i 16 -a 1 -x {4.0 0.0 5 ------- null}
h -t 0.19652 -s 4 -d 3 -p ack -e 40 -c 1 -i 16 -a 1 -x {4.0 0.0 -1 ------- null}
r -t 0.19744 -s 4 -d 3 -p ack -e 40 -c 1 -i 15 -a 1 -x {4.0 0.0 4 ------- null}
+ -t 0.19744 -s 3 -d 0 -p ack -e 40 -c 1 -i 15 -a 1 -x {4.0 0.0 4 ------- null}
- -t 0.19744 -s 3 -d 0 -p ack -e 40 -c 1 -i 15 -a 1 -x {4.0 0.0 4 ------- null}
h -t 0.19744 -s 3 -d 0 -p ack -e 40 -c 1 -i 15 -a 1 -x {4.0 0.0 -1 ------- null}
r -t 0.19912 -s 1 -d 3 -p tcp -e 1040 -c 2 -i 12 -a 2 -x {1.0 4.1 1 ------- null}
+ -t 0.19912 -s 3 -d 4 -p tcp -e 1040 -c 2 -i 12 -a 2 -x {1.0 4.1 1 ------- null}
- -t 0.19912 -s 3 -d 4 -p tcp -e 1040 -c 2 -i 12 -a 2 -x {1.0 4.1 1 ------- null}
h -t 0.19912 -s 3 -d 4 -p tcp -e 1040 -c 2 -i 12 -a 2 -x {1.0 4.1 -1 ------- null}
+ -t 0.2 -s 2 -d 3 -p tcp -e 40 -c 3 -i 17 -a 3 -x {2.0 4.2 0 ------- null}
- -t 0.2 -s 2 -d 3 -p tcp -e 40 -c 3 -i 17 -a 3 -x {2.0 4.2 0 ------- null}
h -t 0.2 -s 2 -d 3 -p tcp -e 40 -c 3 -i 17 -a 3 -x {2.0 4.2 -1 ------- null}
+ -t 0.2 -s 0 -d 3 -p cbr -e 500 -c 4 -i 18 -a 4 -x {0.1 4.3 0 ------- null}
- -t 0.2 -s 0 -d 3 -p cbr -e 500 -c 4 -i 18 -a 4 -x {0.1 4.3 0 ------- null}
h -t 0.2 -s 0 -d 3 -p cbr -e 500 -c 4 -i 18 -a 4 -x {0.1 4.3 -1 ------- null}
r -t 0.20068 -s 3 -d 4 -p tcp -e 1040 -c 1 -i 11 -a 1 -x {0.0 4.0 6 ------- null}
+ -t 0.20068 -s 4 -d 3 -p ack -e 40 -c 1 -i 19 -a 1 -x {4.0 0.0 6 ------- null}
- -t 0.20068 -s 4 -d 3 -p ack -e 40 -c 1 -i 19 -a 1 -x {4.0 0.0 6 ------- null}
h -t 0.20068 -s 4 -d 3 -p ack -e 40 -c 1 -i 19 -a 1 -x {4.0 0.0 -1 ------- null}
r -t 0.2016 -s 4 -d 3 -p ack -e 40 -c 1 -i 16 -a 1 -x {4.0 0.0 5 ------- null}
+ -t 0.2016 -s 3 -d 0 -p ack -e 40 -c 1 -i 16 -a 1 -x {4.0 0.0 5 ------- null}
- -t 0.2016 -s 3 -d 0 -p ack -e 40 -c 1 -i 16 -a 1 -x {4.0 0.0 5 ------- null}
h -t 0.2016 -s 3 -d 0 -p ack -e 40 -c 1 -i 16 -a 1 -x {4.0 0.0 -1 ------- null}
r -t 0.20344 -s 3 -d 0 -p ack -e 40 -c 1 -i 14 -a 1 -x {4.0 0.0 3 ------- null}
+ -t 0.20344 -s 0 -d 3 -p tcp -e 1040 -c 1 -i 20 -a 1 -x {0.0 4.0 7 ------- null}
- -t 0.20344 -s 0 -d 3 -p tcp -e 1040 -c 1 -i 20 -a 1 -x {0.0 4.0 7 ------- null}
h -t 0.20344 -s 0 -d 3 -p tcp -e 1040 -c 1 -i 20 -a 1 -x {0.0 4.0 -1 ------- null}
+ -t 0.20344 -s 0 -d 3 -p tcp -e 1040 -c 1 -i 21 -a 1 -x {0.0 4.0 8 ------- null}
+ -t 0.204 -s 0 -d 3 -p cbr -e 500 -c 4 -i 22 -a 4 -x {0.1 4.3 1 ------- null}
r -t 0.20576 -s 4 -d 3 -p ack -e 40 -c 1 -i 19 -a 1 -x {4.0 0.0 6 ------- null}
+ -t 0.20576 -s 3 -d 0 -p ack -e 40 -c 1 -i 19 -a 1 -x {4.0 0.0 6 ------- null}
- -t 0.20576 -s 3 -d 0 -p ack -e 40 -c 1 -i 19 -a 1 -x {4.0 0.0 6 ------- null}
h -t 0.20576 -s 3 -d 0 -p ack -e 40 -c 1 -i 19 -a 1 -x {4.0 0.0 -1 ------- null}
r -t 0.2062 -s 3 -d 4 -p tcp -e 1040 -c 2 -i 12 -a 2 -x {1.0 4.1 1 ------- null}
+ -t 0.2062 -s 4 -d 3 -p ack -e 40 -c 2 -i 23 -a 2 -x {4.1 1.0 1 ------- null}
- -t 0.2062 -s 4 -d 3 -p ack -e 40 -c 2 -i 23 -a 2 -x {4.1 1.0 1 ------- null}
h -t 0.2062 -s 4 -d 3 -p ack -e 40 -c 2 -i 23 -a 2 -x {4.1 1.0 -1 ------- null}
r -t 0.20744 -s 1 -d 3 -p tcp -e 1040 -c 2 -i 13 -a 2 -x {1.0 4.1 2 ------- null}
+ -t 0.20744 -s 3 -d 4 -p tcp -e 1040 -c 2 -i 13 -a 2 -x {1.0 4.1 2 ------- null}
- -t 0.20744 -s 3 -d 4 -p tcp -e 1040 -c 2 -i 13 -a 2 -x {1.0 4.1 2 ------- null}
h -t 0.20744 -s 3 -d 4 -p tcp -e 1040 -c 2 -i 13 -a 2 -x {1.0 4.1 -1 ------- null}
r -t 0.2076 -s 3 -d 0 -p ack -e 40 -c 1 -i 15 -a 1 -x {4.0 0.0 4 ------- null}
+ -t 0.2076 -s 0 -d 3 -p tcp -e 1040 -c 1 -i 24 -a 1 -x {0.0 4.0 9 ------- null}
+ -t 0.2076 -s 0 -d 3 -p tcp -e 1040 -c 1 -i 25 -a 1 -x {0.0 4.0 10 ------- null}
- -t 0.2076 -s 0 -d 3 -p tcp -e 1040 -c 1 -i 21 -a 1 -x {0.0 4.0 8 ------- null}
h -t 0.2076 -s 0 -d 3 -p tcp -e 1040 -c 1 -i 21 -a 1 -x {0.0 4.0 -1 ------- null}
+ -t 0.208 -s 0 -d 3 -p cbr -e 500 -c 4 -i 26 -a 4 -x {0.1 4.3 2 ------- null}
r -t 0.21032 -s 2 -d 3 -p tcp -e 40 -c 3 -i 17 -a 3 -x {2.0 4.2 0 ------- null}
+ -t 0.21032 -s 3 -d 4 -p tcp -e 40 -c 3 -i 17 -a 3 -x {2.0 4.2 0 ------- null}
- -t 0.21032 -s 3 -d 4 -p tcp -e 40 -c 3 -i 17 -a 3 -x {2.0 4.2 0 ------- null}
h -t 0.21032 -s 3 -d 4 -p tcp -e 40 -c 3 -i 17 -a 3 -x {2.0 4.2 -1 ------- null}
r -t 0.21128 -s 4 -d 3 -p ack -e 40 -c 2 -i 23 -a 2 -x {4.1 1.0 1 ------- null}
+ -t 0.21128 -s 3 -d 1 -p ack -e 40 -c 2 -i 23 -a 2 -x {4.1 1.0 1 ------- null}
- -t 0.21128 -s 3 -d 1 -p ack -e 40 -c 2 -i 23 -a 2 -x {4.1 1.0 1 ------- null}
h -t 0.21128 -s 3 -d 1 -p ack -e 40 -c 2 -i 23 -a 2 -x {4.1 1.0 -1 ------- null}
r -t 0.21176 -s 3 -d 0 -p ack -e 40 -c 1 -i 16 -a 1 -x {4.0 0.0 5 ------- null}
+ -t 0.21176 -s 0 -d 3 -p tcp -e 1040 -c 1 -i 27 -a 1 -x {0.0 4.0 11 ------- null}
+ -t 0.21176 -s 0 -d 3 -p tcp -e 1040 -c 1 -i 28 -a 1 -x {0.0 4.0 12 ------- null}
- -t 0.21176 -s 0 -d 3 -p cbr -e 500 -c 4 -i 22 -a 4 -x {0.1 4.3 1 ------- null}
h -t 0.21176 -s 0 -d 3 -p cbr -e 500 -c 4 -i 22 -a 4 -x {0.1 4.3 -1 ------- null}
r -t 0.212 -s 0 -d 3 -p cbr -e 500 -c 4 -i 18 -a 4 -x {0.1 4.3 0 ------- null}
+ -t 0.212 -s 3 -d 4 -p cbr -e 500 -c 4 -i 18 -a 4 -x {0.1 4.3 0 ------- null}
- -t 0.212 -s 3 -d 4 -p cbr -e 500 -c 4 -i 18 -a 4 -x {0.1 4.3 0 ------- null}
h -t 0.212 -s 3 -d 4 -p cbr -e 500 -c 4 -i 18 -a 4 -x {0.1 4.3 -1 ------- null}
+ -t 0.212 -s 0 -d 3 -p cbr -e 500 -c 4 -i 29 -a 4 -x {0.1 4.3 3 ------- null}
- -t 0.21376 -s 0 -d 3 -p tcp -e 1040 -c 1 -i 24 -a 1 -x {0.0 4.0 9 ------- null}
h -t 0.21376 -s 0 -d 3 -p tcp -e 1040 -c 1 -i 24 -a 1 -x {0.0 4.0 -1 ------- null}
r -t 0.21452 -s 3 -d 4 -p tcp -e 1040 -c 2 -i 13 -a 2 -x {1.0 4.1 2 ------- null}
+ -t 0.21452 -s 4 -d 3 -p ack -e 40 -c 2 -i 30 -a 2 -x {4.1 1.0 2 ------- null}
- -t 0.21452 -s 4 -d 3 -p ack -e 40 -c 2 -i 30 -a 2 -x {4.1 1.0 2 ------- null}
h -t 0.21452 -s 4 -d 3 -p ack -e 40 -c 2 -i 30 -a 2 -x {4.1 1.0 -1 ------- null}
r -t 0.2154 -s 3 -d 4 -p tcp -e 40 -c 3 -i 17 -a 3 -x {2.0 4.2 0 ------- null}
+ -t 0.2154 -s 4 -d 3 -p ack -e 40 -c 3 -i 31 -a 3 -x {4.2 2.0 0 ------- null}
- -t 0.2154 -s 4 -d 3 -p ack -e 40 -c 3 -i 31 -a 3 -x {4.2 2.0 0 ------- null}
h -t 0.2154 -s 4 -d 3 -p ack -e 40 -c 3 -i 31 -a 3 -x {4.2 2.0 -1 ------- null}
r -t 0.21592 -s 3 -d 0 -p ack -e 40 -c 1 -i 19 -a 1 -x {4.0 0.0 6 ------- null}
+ -t 0.21592 -s 0 -d 3 -p tcp -e 1040 -c 1 -i 32 -a 1 -x {0.0 4.0 13 ------- null}
+ -t 0.21592 -s 0 -d 3 -p tcp -e 1040 -c 1 -i 33 -a 1 -x {0.0 4.0 14 ------- null}
+ -t 0.216 -s 0 -d 3 -p cbr -e 500 -c 4 -i 34 -a 4 -x {0.1 4.3 4 ------- null}
r -t 0.2176 -s 0 -d 3 -p tcp -e 1040 -c 1 -i 20 -a 1 -x {0.0 4.0 7 ------- null}
+ -t 0.2176 -s 3 -d 4 -p tcp -e 1040 -c 1 -i 20 -a 1 -x {0.0 4.0 7 ------- null}
- -t 0.2176 -s 3 -d 4 -p tcp -e 1040 -c 1 -i 20 -a 1 -x {0.0 4.0 7 ------- null}
h -t 0.2176 -s 3 -d 4 -p tcp -e 1040 -c 1 -i 20 -a 1 -x {0.0 4.0 -1 ------- null}
- -t 0.21792 -s 0 -d 3 -p tcp -e 1040 -c 1 -i 25 -a 1 -x {0.0 4.0 10 ------- null}
h -t 0.21792 -s 0 -d 3 -p tcp -e 1040 -c 1 -i 25 -a 1 -x {0.0 4.0 -1 ------- null}
r -t 0.218 -s 3 -d 4 -p cbr -e 500 -c 4 -i 18 -a 4 -x {0.1 4.3 0 ------- null}
r -t 0.2196 -s 4 -d 3 -p ack -e 40 -c 2 -i 30 -a 2 -x {4.1 1.0 2 ------- null}
+ -t 0.2196 -s 3 -d 1 -p ack -e 40 -c 2 -i 30 -a 2 -x {4.1 1.0 2 ------- null}
- -t 0.2196 -s 3 -d 1 -p ack -e 40 -c 2 -i 30 -a 2 -x {4.1 1.0 2 ------- null}
h -t 0.2196 -s 3 -d 1 -p ack -e 40 -c 2 -i 30 -a 2 -x {4.1 1.0 -1 ------- null}
+ -t 0.22 -s 0 -d 3 -p cbr -e 500 -c 4 -i 35 -a 4 -x {0.1 4.3 5 ------- null}
r -t 0.22048 -s 4 -d 3 -p ack -e 40 -c 3 -i 31 -a 3 -x {4.2 2.0 0 ------- null}
+ -t 0.22048 -s 3 -d 2 -p ack -e 40 -c 3 -i 31 -a 3 -x {4.2 2.0 0 ------- null}
- -t 0.22048 -s 3 -d 2 -p ack -e 40 -c 3 -i 31 -a 3 -x {4.2 2.0 0 ------- null}
h -t 0.22048 -s 3 -d 2 -p ack -e 40 -c 3 -i 31 -a 3 -x {4.2 2.0 -1 ------- null}
r -t 0.2216 -s 3 -d 1 -p ack -e 40 -c 2 -i 23 -a 2 -x {4.1 1.0 1 ------- null}
+ -t 0.2216 -s 1 -d 3 -p tcp -e 1040 -c 2 -i 36 -a 2 -x {1.0 4.1 3 ------- null}
- -t 0.2216 -s 1 -d 3 -p tcp -e 1040 -c 2 -i 36 -a 2 -x {1.0 4.1 3 ------- null}
h -t 0.2216 -s 1 -d 3 -p tcp -e 1040 -c 2 -i 36 -a 2 -x {1.0 4.1 -1 ------- null}
+ -t 0.2216 -s 1 -d 3 -p tcp -e 1040 -c 2 -i 37 -a 2 -x {1.0 4.1 4 ------- null}
r -t 0.22176 -s 0 -d 3 -p tcp -e 1040 -c 1 -i 21 -a 1 -x {0.0 4.0 8 ------- null}
+ -t 0.22176 -s 3 -d 4 -p tcp -e 1040 -c 1 -i 21 -a 1 -x {0.0 4.0 8 ------- null}
- -t 0.22176 -s 3 -d 4 -p tcp -e 1040 -c 1 -i 21 -a 1 -x {0.0 4.0 8 ------- null}
h -t 0.22176 -s 3 -d 4 -p tcp -e 1040 -c 1 -i 21 -a 1 -x {0.0 4.0 -1 ------- null}
- -t 0.22208 -s 0 -d 3 -p cbr -e 500 -c 4 -i 26 -a 4 -x {0.1 4.3 2 ------- null}
h -t 0.22208 -s 0 -d 3 -p cbr -e 500 -c 4 -i 26 -a 4 -x {0.1 4.3 -1 ------- null}
r -t 0.22376 -s 0 -d 3 -p cbr -e 500 -c 4 -i 22 -a 4 -x {0.1 4.3 1 ------- null}
+ -t 0.22376 -s 3 -d 4 -p cbr -e 500 -c 4 -i 22 -a 4 -x {0.1 4.3 1 ------- null}
- -t 0.22384 -s 3 -d 4 -p cbr -e 500 -c 4 -i 22 -a 4 -x {0.1 4.3 1 ------- null}
h -t 0.22384 -s 3 -d 4 -p cbr -e 500 -c 4 -i 22 -a 4 -x {0.1 4.3 -1 ------- null}
+ -t 0.224 -s 0 -d 3 -p cbr -e 500 -c 4 -i 38 -a 4 -x {0.1 4.3 6 ------- null}
- -t 0.22408 -s 0 -d 3 -p tcp -e 1040 -c 1 -i 27 -a 1 -x {0.0 4.0 11 ------- null}
h -t 0.22408 -s 0 -d 3 -p tcp -e 1040 -c 1 -i 27 -a 1 -x {0.0 4.0 -1 ------- null}
r -t 0.22468 -s 3 -d 4 -p tcp -e 1040 -c 1 -i 20 -a 1 -x {0.0 4.0 7 ------- null}
+ -t 0.22468 -s 4 -d 3 -p ack -e 40 -c 1 -i 39 -a 1 -x {4.0 0.0 7 ------- null}
- -t 0.22468 -s 4 -d 3 -p ack -e 40 -c 1 -i 39 -a 1 -x {4.0 0.0 7 ------- null}
h -t 0.22468 -s 4 -d 3 -p ack -e 40 -c 1 -i 39 -a 1 -x {4.0 0.0 -1 ------- null}
r -t 0.22792 -s 0 -d 3 -p tcp -e 1040 -c 1 -i 24 -a 1 -x {0.0 4.0 9 ------- null}
+ -t 0.22792 -s 3 -d 4 -p tcp -e 1040 -c 1 -i 24 -a 1 -x {0.0 4.0 9 ------- null}
- -t 0.22792 -s 3 -d 4 -p tcp -e 1040 -c 1 -i 24 -a 1 -x {0.0 4.0 9 ------- null}
h -t 0.22792 -s 3 -d 4 -p tcp -e 1040 -c 1 -i 24 -a 1 -x {0.0 4.0 -1 ------- null}
+ -t 0.228 -s 0 -d 3 -p cbr -e 500 -c 4 -i 40 -a 4 -x {0.1 4.3 7 ------- null}
- -t 0.22824 -s 0 -d 3 -p tcp -e 1040 -c 1 -i 28 -a 1 -x {0.0 4.0 12 ------- null}
h -t 0.22824 -s 0 -d 3 -p tcp -e 1040 -c 1 -i 28 -a 1 -x {0.0 4.0 -1 ------- null}
r -t 0.22884 -s 3 -d 4 -p tcp -e 1040 -c 1 -i 21 -a 1 -x {0.0 4.0 8 ------- null}
+ -t 0.22884 -s 4 -d 3 -p ack -e 40 -c 1 -i 41 -a 1 -x {4.0 0.0 8 ------- null}
- -t 0.22884 -s 4 -d 3 -p ack -e 40 -c 1 -i 41 -a 1 -x {4.0 0.0 8 ------- null}
h -t 0.22884 -s 4 -d 3 -p ack -e 40 -c 1 -i 41 -a 1 -x {4.0 0.0 -1 ------- null}
r -t 0.22976 -s 4 -d 3 -p ack -e 40 -c 1 -i 39 -a 1 -x {4.0 0.0 7 ------- null}
+ -t 0.22976 -s 3 -d 0 -p ack -e 40 -c 1 -i 39 -a 1 -x {4.0 0.0 7 ------- null}
- -t 0.22976 -s 3 -d 0 -p ack -e 40 -c 1 -i 39 -a 1 -x {4.0 0.0 7 ------- null}
h -t 0.22976 -s 3 -d 0 -p ack -e 40 -c 1 -i 39 -a 1 -x {4.0 0.0 -1 ------- null}
r -t 0.22984 -s 3 -d 4 -p cbr -e 500 -c 4 -i 22 -a 4 -x {0.1 4.3 1 ------- null}
r -t 0.22992 -s 3 -d 1 -p ack -e 40 -c 2 -i 30 -a 2 -x {4.1 1.0 2 ------- null}
+ -t 0.22992 -s 1 -d 3 -p tcp -e 1040 -c 2 -i 42 -a 2 -x {1.0 4.1 5 ------- null}
+ -t 0.22992 -s 1 -d 3 -p tcp -e 1040 -c 2 -i 43 -a 2 -x {1.0 4.1 6 ------- null}
- -t 0.22992 -s 1 -d 3 -p tcp -e 1040 -c 2 -i 37 -a 2 -x {1.0 4.1 4 ------- null}
h -t 0.22992 -s 1 -d 3 -p tcp -e 1040 -c 2 -i 37 -a 2 -x {1.0 4.1 -1 ------- null}
r -t 0.2308 -s 3 -d 2 -p ack -e 40 -c 3 -i 31 -a 3 -x {4.2 2.0 0 ------- null}
+ -t 0.2308 -s 2 -d 3 -p tcp -e 1040 -c 3 -i 44 -a 3 -x {2.0 4.2 1 ------- null}
- -t 0.2308 -s 2 -d 3 -p tcp -e 1040 -c 3 -i 44 -a 3 -x {2.0 4.2 1 ------- null}
h -t 0.2308 -s 2 -d 3 -p tcp -e 1040 -c 3 -i 44 -a 3 -x {2.0 4.2 -1 ------- null}
+ -t 0.2308 -s 2 -d 3 -p tcp -e 1040 -c 3 -i 45 -a 3 -x {2.0 4.2 2 ------- null}
+ -t 0.232 -s 0 -d 3 -p cbr -e 500 -c 4 -i 46 -a 4 -x {0.1 4.3 8 ------- null}
r -t 0.23208 -s 0 -d 3 -p tcp -e 1040 -c 1 -i 25 -a 1 -x {0.0 4.0 10 ------- null}
+ -t 0.23208 -s 3 -d 4 -p tcp -e 1040 -c 1 -i 25 -a 1 -x {0.0 4.0 10 ------- null}
- -t 0.23208 -s 3 -d 4 -p tcp -e 1040 -c 1 -i 25 -a 1 -x {0.0 4.0 10 ------- null}
h -t 0.23208 -s 3 -d 4 -p tcp -e 1040 -c 1 -i 25 -a 1 -x {0.0 4.0 -1 ------- null}
- -t 0.2324 -s 0 -d 3 -p cbr -e 500 -c 4 -i 29 -a 4 -x {0.1 4.3 3 ------- null}
h -t 0.2324 -s 0 -d 3 -p cbr -e 500 -c 4 -i 29 -a 4 -x {0.1 4.3 -1 ------- null}
r -t 0.23392 -s 4 -d 3 -p ack -e 40 -c 1 -i 41 -a 1 -x {4.0 0.0 8 ------- null}
+ -t 0.23392 -s 3 -d 0 -p ack -e 40 -c 1 -i 41 -a 1 -x {4.0 0.0 8 ------- null}
- -t 0.23392 -s 3 -d 0 -p ack -e 40 -c 1 -i 41 -a 1 -x {4.0 0.0 8 ------- null}
h -t 0.23392 -s 3 -d 0 -p ack -e 40 -c 1 -i 41 -a 1 -x {4.0 0.0 -1 ------- null}
r -t 0.23408 -s 0 -d 3 -p cbr -e 500 -c 4 -i 26 -a 4 -x {0.1 4.3 2 ------- null}
+ -t 0.23408 -s 3 -d 4 -p cbr -e 500 -c 4 -i 26 -a 4 -x {0.1 4.3 2 ------- null}
- -t 0.23416 -s 3 -d 4 -p cbr -e 500 -c 4 -i 26 -a 4 -x {0.1 4.3 2 ------- null}
h -t 0.23416 -s 3 -d 4 -p cbr -e 500 -c 4 -i 26 -a 4 -x {0.1 4.3 -1 ------- null}
- -t 0.2344 -s 0 -d 3 -p tcp -e 1040 -c 1 -i 32 -a 1 -x {0.0 4.0 13 ------- null}
h -t 0.2344 -s 0 -d 3 -p tcp -e 1040 -c 1 -i 32 -a 1 -x {0.0 4.0 -1 ------- null}
r -t 0.235 -s 3 -d 4 -p tcp -e 1040 -c 1 -i 24 -a 1 -x {0.0 4.0 9 ------- null}
+ -t 0.235 -s 4 -d 3 -p ack -e 40 -c 1 -i 47 -a 1 -x {4.0 0.0 9 ------- null}
- -t 0.235 -s 4 -d 3 -p ack -e 40 -c 1 -i 47 -a 1 -x {4.0 0.0 9 ------- null}
h -t 0.235 -s 4 -d 3 -p ack -e 40 -c 1 -i 47 -a 1 -x {4.0 0.0 -1 ------- null}
+ -t 0.236 -s 0 -d 3 -p cbr -e 500 -c 4 -i 48 -a 4 -x {0.1 4.3 9 ------- null}
- -t 0.23824 -s 1 -d 3 -p tcp -e 1040 -c 2 -i 42 -a 2 -x {1.0 4.1 5 ------- null}
h -t 0.23824 -s 1 -d 3 -p tcp -e 1040 -c 2 -i 42 -a 2 -x {1.0 4.1 -1 ------- null}
r -t 0.23824 -s 0 -d 3 -p tcp -e 1040 -c 1 -i 27 -a 1 -x {0.0 4.0 11 ------- null}
+ -t 0.23824 -s 3 -d 4 -p tcp -e 1040 -c 1 -i 27 -a 1 -x {0.0 4.0 11 ------- null}
- -t 0.23824 -s 3 -d 4 -p tcp -e 1040 -c 1 -i 27 -a 1 -x {0.0 4.0 11 ------- null}
h -t 0.23824 -s 3 -d 4 -p tcp -e 1040 -c 1 -i 27 -a 1 -x {0.0 4.0 -1 ------- null}
- -t 0.23856 -s 0 -d 3 -p tcp -e 1040 -c 1 -i 33 -a 1 -x {0.0 4.0 14 ------- null}
h -t 0.23856 -s 0 -d 3 -p tcp -e 1040 -c 1 -i 33 -a 1 -x {0.0 4.0 -1 ------- null}
- -t 0.23912 -s 2 -d 3 -p tcp -e 1040 -c 3 -i 45 -a 3 -x {2.0 4.2 2 ------- null}
h -t 0.23912 -s 2 -d 3 -p tcp -e 1040 -c 3 -i 45 -a 3 -x {2.0 4.2 -1 ------- null}
r -t 0.23916 -s 3 -d 4 -p tcp -e 1040 -c 1 -i 25 -a 1 -x {0.0 4.0 10 ------- null}
+ -t 0.23916 -s 4 -d 3 -p ack -e 40 -c 1 -i 49 -a 1 -x {4.0 0.0 10 ------- null}
- -t 0.23916 -s 4 -d 3 -p ack -e 40 -c 1 -i 49 -a 1 -x {4.0 0.0 10 ------- null}
h -t 0.23916 -s 4 -d 3 -p ack -e 40 -c 1 -i 49 -a 1 -x {4.0 0.0 -1 ------- null}
r -t 0.23992 -s 1 -d 3 -p tcp -e 1040 -c 2 -i 36 -a 2 -x {1.0 4.1 3 ------- null}
+ -t 0.23992 -s 3 -d 4 -p tcp -e 1040 -c 2 -i 36 -a 2 -x {1.0 4.1 3 ------- null}
r -t 0.23992 -s 3 -d 0 -p ack -e 40 -c 1 -i 39 -a 1 -x {4.0 0.0 7 ------- null}
+ -t 0.23992 -s 0 -d 3 -p tcp -e 1040 -c 1 -i 50 -a 1 -x {0.0 4.0 15 ------- null}
+ -t 0.23992 -s 0 -d 3 -p tcp -e 1040 -c 1 -i 51 -a 1 -x {0.0 4.0 16 ------- null}
+ -t 0.24 -s 0 -d 3 -p cbr -e 500 -c 4 -i 52 -a 4 -x {0.1 4.3 10 ------- null}
r -t 0.24008 -s 4 -d 3 -p ack -e 40 -c 1 -i 47 -a 1 -x {4.0 0.0 9 ------- null}
+ -t 0.24008 -s 3 -d 0 -p ack -e 40 -c 1 -i 47 -a 1 -x {4.0 0.0 9 ------- null}
- -t 0.24008 -s 3 -d 0 -p ack -e 40 -c 1 -i 47 -a 1 -x {4.0 0.0 9 ------- null}
h -t 0.24008 -s 3 -d 0 -p ack -e 40 -c 1 -i 47 -a 1 -x {4.0 0.0 -1 ------- null}
r -t 0.24016 -s 3 -d 4 -p cbr -e 500 -c 4 -i 26 -a 4 -x {0.1 4.3 2 ------- null}
- -t 0.24032 -s 3 -d 4 -p tcp -e 1040 -c 2 -i 36 -a 2 -x {1.0 4.1 3 ------- null}
h -t 0.24032 -s 3 -d 4 -p tcp -e 1040 -c 2 -i 36 -a 2 -x {1.0 4.1 -1 ------- null}
r -t 0.2424 -s 0 -d 3 -p tcp -e 1040 -c 1 -i 28 -a 1 -x {0.0 4.0 12 ------- null}
+ -t 0.2424 -s 3 -d 4 -p tcp -e 1040 -c 1 -i 28 -a 1 -x {0.0 4.0 12 ------- null}
- -t 0.2424 -s 3 -d 4 -p tcp -e 1040 -c 1 -i 28 -a 1 -x {0.0 4.0 12 ------- null}
h -t 0.2424 -s 3 -d 4 -p tcp -e 1040 -c 1 -i 28 -a 1 -x {0.0 4.0 -1 ------- null}
- -t 0.24272 -s 0 -d 3 -p cbr -e 500 -c 4 -i 34 -a 4 -x {0.1 4.3 4 ------- null}
h -t 0.24272 -s 0 -d 3 -p cbr -e 500 -c 4 -i 34 -a 4 -x {0.1 4.3 -1 ------- null}
+ -t 0.244 -s 0 -d 3 -p cbr -e 500 -c 4 -i 53 -a 4 -x {0.1 4.3 11 ------- null}
r -t 0.24408 -s 3 -d 0 -p ack -e 40 -c 1 -i 41 -a 1 -x {4.0 0.0 8 ------- null}
+ -t 0.24408 -s 0 -d 3 -p tcp -e 1040 -c 1 -i 54 -a 1 -x {0.0 4.0 17 ------- null}
+ -t 0.24408 -s 0 -d 3 -p tcp -e 1040 -c 1 -i 55 -a 1 -x {0.0 4.0 18 ------- null}
r -t 0.24424 -s 4 -d 3 -p ack -e 40 -c 1 -i 49 -a 1 -x {4.0 0.0 10 ------- null}
+ -t 0.24424 -s 3 -d 0 -p ack -e 40 -c 1 -i 49 -a 1 -x {4.0 0.0 10 ------- null}
- -t 0.24424 -s 3 -d 0 -p ack -e 40 -c 1 -i 49 -a 1 -x {4.0 0.0 10 ------- null}
h -t 0.24424 -s 3 -d 0 -p ack -e 40 -c 1 -i 49 -a 1 -x {4.0 0.0 -1 ------- null}
r -t 0.2444 -s 0 -d 3 -p cbr -e 500 -c 4 -i 29 -a 4 -x {0.1 4.3 3 ------- null}
+ -t 0.2444 -s 3 -d 4 -p cbr -e 500 -c 4 -i 29 -a 4 -x {0.1 4.3 3 ------- null}
- -t 0.24448 -s 3 -d 4 -p cbr -e 500 -c 4 -i 29 -a 4 -x {0.1 4.3 3 ------- null}
h -t 0.24448 -s 3 -d 4 -p cbr -e 500 -c 4 -i 29 -a 4 -x {0.1 4.3 -1 ------- null}
- -t 0.24472 -s 0 -d 3 -p cbr -e 500 -c 4 -i 35 -a 4 -x {0.1 4.3 5 ------- null}
h -t 0.24472 -s 0 -d 3 -p cbr -e 500 -c 4 -i 35 -a 4 -x {0.1 4.3 -1 ------- null}
r -t 0.24532 -s 3 -d 4 -p tcp -e 1040 -c 1 -i 27 -a 1 -x {0.0 4.0 11 ------- null}
+ -t 0.24532 -s 4 -d 3 -p ack -e 40 -c 1 -i 56 -a 1 -x {4.0 0.0 11 ------- null}
- -t 0.24532 -s 4 -d 3 -p ack -e 40 -c 1 -i 56 -a 1 -x {4.0 0.0 11 ------- null}
h -t 0.24532 -s 4 -d 3 -p ack -e 40 -c 1 -i 56 -a 1 -x {4.0 0.0 -1 ------- null}
- -t 0.24656 -s 1 -d 3 -p tcp -e 1040 -c 2 -i 43 -a 2 -x {1.0 4.1 6 ------- null}
h -t 0.24656 -s 1 -d 3 -p tcp -e 1040 -c 2 -i 43 -a 2 -x {1.0 4.1 -1 ------- null}
- -t 0.24672 -s 0 -d 3 -p cbr -e 500 -c 4 -i 38 -a 4 -x {0.1 4.3 6 ------- null}
h -t 0.24672 -s 0 -d 3 -p cbr -e 500 -c 4 -i 38 -a 4 -x {0.1 4.3 -1 ------- null}
r -t 0.2474 -s 3 -d 4 -p tcp -e 1040 -c 2 -i 36 -a 2 -x {1.0 4.1 3 ------- null}
+ -t 0.2474 -s 4 -d 3 -p ack -e 40 -c 2 -i 57 -a 2 -x {4.1 1.0 3 ------- null}
- -t 0.2474 -s 4 -d 3 -p ack -e 40 -c 2 -i 57 -a 2 -x {4.1 1.0 3 ------- null}
h -t 0.2474 -s 4 -d 3 -p ack -e 40 -c 2 -i 57 -a 2 -x {4.1 1.0 -1 ------- null}
+ -t 0.248 -s 0 -d 3 -p cbr -e 500 -c 4 -i 58 -a 4 -x {0.1 4.3 12 ------- null}
r -t 0.24824 -s 1 -d 3 -p tcp -e 1040 -c 2 -i 37 -a 2 -x {1.0 4.1 4 ------- null}
+ -t 0.24824 -s 3 -d 4 -p tcp -e 1040 -c 2 -i 37 -a 2 -x {1.0 4.1 4 ------- null}
- -t 0.24824 -s 3 -d 4 -p tcp -e 1040 -c 2 -i 37 -a 2 -x {1.0 4.1 4 ------- null}
h -t 0.24824 -s 3 -d 4 -p tcp -e 1040 -c 2 -i 37 -a 2 -x {1.0 4.1 -1 ------- null}
r -t 0.24856 -s 0 -d 3 -p tcp -e 1040 -c 1 -i 32 -a 1 -x {0.0 4.0 13 ------- null}
+ -t 0.24856 -s 3 -d 4 -p tcp -e 1040 -c 1 -i 32 -a 1 -x {0.0 4.0 13 ------- null}
- -t 0.24872 -s 0 -d 3 -p cbr -e 500 -c 4 -i 40 -a 4 -x {0.1 4.3 7 ------- null}
h -t 0.24872 -s 0 -d 3 -p cbr -e 500 -c 4 -i 40 -a 4 -x {0.1 4.3 -1 ------- null}
r -t 0.24912 -s 2 -d 3 -p tcp -e 1040 -c 3 -i 44 -a 3 -x {2.0 4.2 1 ------- null}
+ -t 0.24912 -s 3 -d 4 -p tcp -e 1040 -c 3 -i 44 -a 3 -x {2.0 4.2 1 ------- null}
r -t 0.24948 -s 3 -d 4 -p tcp -e 1040 -c 1 -i 28 -a 1 -x {0.0 4.0 12 ------- null}
+ -t 0.24948 -s 4 -d 3 -p ack -e 40 -c 1 -i 59 -a 1 -x {4.0 0.0 12 ------- null}
- -t 0.24948 -s 4 -d 3 -p ack -e 40 -c 1 -i 59 -a 1 -x {4.0 0.0 12 ------- null}
h -t 0.24948 -s 4 -d 3 -p ack -e 40 -c 1 -i 59 -a 1 -x {4.0 0.0 -1 ------- null}
r -t 0.25024 -s 3 -d 0 -p ack -e 40 -c 1 -i 47 -a 1 -x {4.0 0.0 9 ------- null}
+ -t 0.25024 -s 0 -d 3 -p tcp -e 1040 -c 1 -i 60 -a 1 -x {0.0 4.0 19 ------- null}
+ -t 0.25024 -s 0 -d 3 -p tcp -e 1040 -c 1 -i 61 -a 1 -x {0.0 4.0 20 ------- null}
- -t 0.25032 -s 3 -d 4 -p tcp -e 1040 -c 1 -i 32 -a 1 -x {0.0 4.0 13 ------- null}
h -t 0.25032 -s 3 -d 4 -p tcp -e 1040 -c 1 -i 32 -a 1 -x {0.0 4.0 -1 ------- null}
r -t 0.2504 -s 4 -d 3 -p ack -e 40 -c 1 -i 56 -a 1 -x {4.0 0.0 11 ------- null}
+ -t 0.2504 -s 3 -d 0 -p ack -e 40 -c 1 -i 56 -a 1 -x {4.0 0.0 11 ------- null}
- -t 0.2504 -s 3 -d 0 -p ack -e 40 -c 1 -i 56 -a 1 -x {4.0 0.0 11 ------- null}
h -t 0.2504 -s 3 -d 0 -p ack -e 40 -c 1 -i 56 -a 1 -x {4.0 0.0 -1 ------- null}
r -t 0.25048 -s 3 -d 4 -p cbr -e 500 -c 4 -i 29 -a 4 -x {0.1 4.3 3 ------- null}